# vtk DataFile Version 3.0
vtk output
ASCII
DATASET UNSTRUCTURED_GRID
POINTS 5233 double
9.997500e-01	-3.633244e-05	0.0	9.990000e-01	-1.454731e-04	0.0	9.977600e-01	-3.275154e-04	0.0	9.960200e-01	-5.899706e-04	0.0	9.937800e-01	-9.472521e-04	0.0	9.910500e-01	-1.422533e-03	0.0	9.878400e-01	-2.046514e-03	0.0	9.841300e-01	-2.855643e-03	0.0	9.799500e-01	-3.862317e-03	0.0	9.752800e-01	-5.063720e-03	0.0	9.701500e-01	-6.412943e-03	0.0	9.645400e-01	-7.851362e-03	0.0	9.584700e-01	-9.303440e-03	0.0	9.519400e-01	-1.071366e-02	0.0	9.449600e-01	-1.205399e-02	0.0	9.375400e-01	-1.332880e-02	0.0	9.296900e-01	-1.456544e-02	0.0	9.214000e-01	-1.580227e-02	0.0	9.127000e-01	-1.706656e-02	0.0	9.035800e-01	-1.837937e-02	0.0	8.940600e-01	-1.974432e-02	0.0	8.841500e-01	-2.115678e-02	0.0	8.738500e-01	-2.260850e-02	0.0	8.631800e-01	-2.408736e-02	0.0	8.521600e-01	-2.558271e-02	0.0	8.407700e-01	-2.709137e-02	0.0	8.290500e-01	-2.860411e-02	0.0	8.170100e-01	-3.011710e-02	0.0	8.046400e-01	-3.162952e-02	0.0	7.919700e-01	-3.313573e-02	0.0	7.790100e-01	-3.463246e-02	0.0	7.657800e-01	-3.611509e-02	0.0	7.522800e-01	-3.758107e-02	0.0	7.385200e-01	-3.902654e-02	0.0	7.245300e-01	-4.044563e-02	0.0	7.103200e-01	-4.183470e-02	0.0	6.958900e-01	-4.319119e-02	0.0	6.812700e-01	-4.450990e-02	0.0	6.664700e-01	-4.578783e-02	0.0	6.515000e-01	-4.702221e-02	0.0	6.363800e-01	-4.820972e-02	0.0	6.211300e-01	-4.934748e-02	0.0	6.057600e-01	-5.043362e-02	0.0	5.902800e-01	-5.146654e-02	0.0	5.747100e-01	-5.244419e-02	0.0	5.590600e-01	-5.336544e-02	0.0	5.433600e-01	-5.422821e-02	0.0	5.276100e-01	-5.503233e-02	0.0	5.118400e-01	-5.577619e-02	0.0	4.960500e-01	-5.645975e-02	0.0	4.802700e-01	-5.708170e-02	0.0	4.645100e-01	-5.764168e-02	0.0	4.487800e-01	-5.813923e-02	0.0	4.331100e-01	-5.857331e-02	0.0	4.175000e-01	-5.894372e-02	0.0	4.019700e-01	-5.924957e-02	0.0	3.865400e-01	-5.949001e-02	0.0	3.712300e-01	-5.966415e-02	0.0	3.560400e-01	-5.977123e-02	0.0	3.409900e-01	-5.981010e-02	0.0	3.261100e-01	-5.977965e-02	0.0	3.114000e-01	-5.967875e-02	0.0	2.968700e-01	-5.950603e-02	0.0	2.825500e-01	-5.926038e-02	0.0	2.684500e-01	-5.894051e-02	0.0	2.545700e-01	-5.854473e-02	0.0	2.409400e-01	-5.807215e-02	0.0	2.275700e-01	-5.752147e-02	0.0	2.144700e-01	-5.689137e-02	0.0	2.016600e-01	-5.618114e-02	0.0	1.891400e-01	-5.538907e-02	0.0	1.769300e-01	-5.451469e-02	0.0	1.650400e-01	-5.355713e-02	0.0	1.534900e-01	-5.251658e-02	0.0	1.422900e-01	-5.139269e-02	0.0	1.314400e-01	-5.018417e-02	0.0	1.209500e-01	-4.889072e-02	0.0	1.108500e-01	-4.751507e-02	0.0	1.011300e-01	-4.605501e-02	0.0	9.181000e-02	-4.451258e-02	0.0	8.290000e-02	-4.288886e-02	0.0	7.440000e-02	-4.118316e-02	0.0	6.633000e-02	-3.939897e-02	0.0	5.869000e-02	-3.753593e-02	0.0	5.149000e-02	-3.559603e-02	0.0	4.474000e-02	-3.358174e-02	0.0	3.844000e-02	-3.149273e-02	0.0	3.260000e-02	-2.933179e-02	0.0	2.723000e-02	-2.710261e-02	0.0	2.232000e-02	-2.480012e-02	0.0	1.790000e-02	-2.243835e-02	0.0	1.395000e-02	-2.000644e-02	0.0	1.049000e-02	-1.751573e-02	0.0	7.520000e-03	-1.496718e-02	0.0	5.040000e-03	-1.236105e-02	0.0	3.050000e-03	-9.695959e-03	0.0	1.560000e-03	-6.987428e-03	0.0	5.600000e-04	-4.214656e-03	0.0	6.000000e-05	-1.385896e-03	0.0	0.000000e+00	0.000000e+00	0.0	6.000000e-05	1.265645e-03	0.0	5.600000e-04	3.633354e-03	0.0	1.560000e-03	5.804459e-03	0.0	3.050000e-03	7.829842e-03	0.0	5.040000e-03	9.754210e-03	0.0	7.520000e-03	1.158508e-02	0.0	1.049000e-02	1.333734e-02	0.0	1.395000e-02	1.502147e-02	0.0	1.790000e-02	1.664535e-02	0.0	2.232000e-02	1.820860e-02	0.0	2.723000e-02	1.972440e-02	0.0	3.260000e-02	2.118865e-02	0.0	3.844000e-02	2.260910e-02	0.0	4.474000e-02	2.398714e-02	0.0	5.149000e-02	2.532420e-02	0.0	5.869000e-02	2.662334e-02	0.0	6.633000e-02	2.788534e-02	0.0	7.440000e-02	2.911090e-02	0.0	8.290000e-02	3.030198e-02	0.0	9.181000e-02	3.145751e-02	0.0	1.011300e-01	3.257904e-02	0.0	1.108500e-01	3.366655e-02	0.0	1.209500e-01	3.471895e-02	0.0	1.314400e-01	3.573811e-02	0.0	1.422900e-01	3.672177e-02	0.0	1.534900e-01	3.766966e-02	0.0	1.650400e-01	3.858217e-02	0.0	1.769300e-01	3.945862e-02	0.0	1.891400e-01	4.029753e-02	0.0	2.016600e-01	4.109813e-02	0.0	2.144700e-01	4.185892e-02	0.0	2.275700e-01	4.257949e-02	0.0	2.409400e-01	4.325813e-02	0.0	2.545700e-01	4.389358e-02	0.0	2.684500e-01	4.448444e-02	0.0	2.825500e-01	4.502840e-02	0.0	2.968700e-01	4.552430e-02	0.0	3.114000e-01	4.597034e-02	0.0	3.261100e-01	4.636408e-02	0.0	3.409900e-01	4.670365e-02	0.0	3.560400e-01	4.698718e-02	0.0	3.712300e-01	4.721212e-02	0.0	3.865400e-01	4.737619e-02	0.0	4.019700e-01	4.747723e-02	0.0	4.175000e-01	4.751283e-02	0.0	4.331100e-01	4.748066e-02	0.0	4.487800e-01	4.737851e-02	0.0	4.645100e-01	4.720406e-02	0.0	4.802700e-01	4.695535e-02	0.0	4.960500e-01	4.663040e-02	0.0	5.118400e-01	4.622731e-02	0.0	5.276100e-01	4.574496e-02	0.0	5.433600e-01	4.518171e-02	0.0	5.590600e-01	4.453720e-02	0.0	5.747100e-01	4.381034e-02	0.0	5.902800e-01	4.300180e-02	0.0	6.057600e-01	4.211186e-02	0.0	6.211300e-01	4.114191e-02	0.0	6.363800e-01	4.009337e-02	0.0	6.515000e-01	3.896817e-02	0.0	6.664700e-01	3.776968e-02	0.0	6.812700e-01	3.650212e-02	0.0	6.958900e-01	3.516961e-02	0.0	7.103200e-01	3.377696e-02	0.0	7.245300e-01	3.233172e-02	0.0	7.385200e-01	3.083921e-02	0.0	7.522800e-01	2.930636e-02	0.0	7.657800e-01	2.774306e-02	0.0	7.790100e-01	2.615765e-02	0.0	7.919700e-01	2.455778e-02	0.0	8.046400e-01	2.295395e-02	0.0	8.170100e-01	2.135578e-02	0.0	8.290500e-01	1.977563e-02	0.0	8.407700e-01	1.822029e-02	0.0	8.521600e-01	1.669820e-02	0.0	8.631800e-01	1.522018e-02	0.0	8.738500e-01	1.378672e-02	0.0	8.841500e-01	1.240102e-02	0.0	8.940600e-01	1.106424e-02	0.0	9.035800e-01	9.774657e-03	0.0	9.127000e-01	8.534951e-03	0.0	9.214000e-01	7.356061e-03	0.0	9.296900e-01	6.254591e-03	0.0	9.375400e-01	5.261576e-03	0.0	9.449600e-01	4.406263e-03	0.0	9.519400e-01	3.713644e-03	0.0	9.584700e-01	3.189835e-03	0.0	9.645400e-01	2.814553e-03	0.0	9.701500e-01	2.542739e-03	0.0	9.752800e-01	2.318341e-03	0.0	9.799500e-01	2.088923e-03	0.0	9.841300e-01	1.824642e-03	0.0	9.878400e-01	1.518690e-03	0.0	9.910500e-01	1.189670e-03	0.0	9.937800e-01	8.628296e-04	0.0	9.960200e-01	5.665732e-04	0.0	9.977600e-01	3.231784e-04	0.0	9.990000e-01	1.450774e-04	0.0	9.997500e-01	3.632617e-05	0.0	1.000000e+00	0.000000e+00	0.0	1.984229e+01	2.506660e+00	0.0	1.937166e+01	4.973800e+00	0.0	1.859553e+01	7.362490e+00	0.0	1.752613e+01	9.635070e+00	0.0	1.618034e+01	1.175571e+01	0.0	1.457937e+01	1.369094e+01	0.0	1.274848e+01	1.541027e+01	0.0	1.071654e+01	1.688656e+01	0.0	8.515590e+00	1.809654e+01	0.0	6.180340e+00	1.902113e+01	0.0	3.747630e+00	1.964575e+01	0.0	1.255810e+00	1.996053e+01	0.0	-1.255810e+00	1.996053e+01	0.0	-3.747630e+00	1.964574e+01	0.0	-6.180340e+00	1.902113e+01	0.0	-8.515590e+00	1.809654e+01	0.0	-1.071654e+01	1.688656e+01	0.0	-1.274848e+01	1.541026e+01	0.0	-1.457937e+01	1.369094e+01	0.0	-1.618034e+01	1.175570e+01	0.0	-1.752613e+01	9.635070e+00	0.0	-1.859553e+01	7.362490e+00	0.0	-1.937166e+01	4.973800e+00	0.0	-1.984229e+01	2.506660e+00	0.0	-2.000000e+01	0.000000e+00	0.0	-1.984229e+01	-2.506670e+00	0.0	-1.937166e+01	-4.973800e+00	0.0	-1.859553e+01	-7.362490e+00	0.0	-1.752613e+01	-9.635080e+00	0.0	-1.618034e+01	-1.175571e+01	0.0	-1.457937e+01	-1.369094e+01	0.0	-1.274848e+01	-1.541027e+01	0.0	-1.071653e+01	-1.688656e+01	0.0	-8.515580e+00	-1.809654e+01	0.0	-6.180340e+00	-1.902113e+01	0.0	-3.747620e+00	-1.964575e+01	0.0	-1.255810e+00	-1.996053e+01	0.0	1.255810e+00	-1.996053e+01	0.0	3.747630e+00	-1.964574e+01	0.0	6.180340e+00	-1.902113e+01	0.0	8.515590e+00	-1.809654e+01	0.0	1.071654e+01	-1.688656e+01	0.0	1.274848e+01	-1.541026e+01	0.0	1.457937e+01	-1.369094e+01	0.0	1.618034e+01	-1.175570e+01	0.0	1.752614e+01	-9.635070e+00	0.0	1.859553e+01	-7.362490e+00	0.0	1.937166e+01	-4.973790e+00	0.0	1.984229e+01	-2.506660e+00	0.0	2.000000e+01	0.000000e+00	0.0	6.074022e-02	-4.539867e-02	0.0	6.601886e-01	-6.006607e-02	0.0	4.255560e-01	6.172123e-02	0.0	6.897646e-01	4.905835e-02	0.0	3.791238e-01	-7.363718e-02	0.0	9.994675e-01	-7.276039e-04	0.0	9.985545e-01	-1.331482e-03	0.0	7.738142e-01	-4.744348e-02	0.0	6.898604e-01	-5.719289e-02	0.0	-1.132108e-03	5.529017e-03	0.0	7.467808e-01	-5.085185e-02	0.0	5.833329e-01	5.749804e-02	0.0	9.928162e-01	-3.736815e-03	0.0	9.899363e-01	-4.745259e-03	0.0	5.989088e-01	5.656070e-02	0.0	7.187652e-01	-5.410843e-02	0.0	-1.471688e-03	6.010704e-04	0.0	9.865730e-01	-5.908350e-03	0.0	9.827335e-01	-7.229415e-03	0.0	-1.307132e-03	-6.485792e-03	0.0	6.451052e-01	-6.141616e-02	0.0	8.244833e-01	-4.033789e-02	0.0	7.997433e-01	-4.393615e-02	0.0	3.484836e-01	6.062559e-02	0.0	8.479035e-01	-3.670502e-02	0.0	2.473678e-01	5.613833e-02	0.0	8.699437e-01	-3.306175e-02	0.0	1.045939e-02	1.738780e-02	0.0	8.904975e-01	-2.946423e-02	0.0	7.702012e-02	-4.977643e-02	0.0	9.094927e-01	-2.596737e-02	0.0	-1.770975e-03	-3.212809e-03	0.0	9.424842e-01	-1.918689e-02	0.0	9.268492e-01	-2.257320e-02	0.0	1.794315e-02	-2.755621e-02	0.0	4.257419e-01	-7.306837e-02	0.0	8.591052e-01	-3.487924e-02	0.0	9.563370e-01	-1.568074e-02	0.0	9.784097e-01	-8.729955e-03	0.0	9.683313e-01	-1.208951e-02	0.0	1.582643e-01	-6.363545e-02	0.0	9.001968e-01	-2.770124e-02	0.0	7.604303e-01	-4.916354e-02	0.0	9.971361e-01	-2.087428e-03	0.0	5.990500e-01	-6.508661e-02	0.0	4.414444e-01	-7.271901e-02	0.0	5.363196e-01	-6.901768e-02	0.0	4.730158e-01	-7.178794e-02	0.0	5.046766e-01	-7.055231e-02	0.0	4.888343e-01	-7.120702e-02	0.0	1.249496e-01	-5.913474e-02	0.0	2.784009e-02	-3.304436e-02	0.0	3.945694e-01	-7.352912e-02	0.0	4.621606e-02	-4.069863e-02	0.0	4.101101e-01	-7.333985e-02	0.0	3.187157e-01	-7.324779e-02	0.0	3.486134e-01	-7.361272e-02	0.0	3.350401e-02	-3.566090e-02	0.0	2.895117e-01	-7.254514e-02	0.0	9.348867e-01	-2.088696e-02	0.0	1.468054e-01	-6.222604e-02	0.0	1.946449e-01	-6.728692e-02	0.0	8.579470e-02	-5.183330e-02	0.0	1.045867e-01	-5.567769e-02	0.0	5.678222e-01	-6.719997e-02	0.0	1.700670e-01	-6.495097e-02	0.0	6.145275e-01	-6.392574e-02	0.0	8.804149e-01	-3.125461e-02	0.0	2.266375e-02	-3.034113e-02	0.0	9.952220e-01	-2.870436e-03	0.0	6.731144e-03	-1.886336e-02	0.0	1.848805e-02	2.156570e-02	0.0	9.183794e-01	-2.426084e-02	0.0	9.4964
[...]
POINT_DATA 5233

SCALARS Density double 1
LOOKUP_TABLE default
1.199842e+00	1.181633e+00	1.171229e+00	1.164813e+00	1.160263e+00	1.155818e+00	1.148946e+00	1.138029e+00	1.121836e+00	1.100453e+00	1.075121e+00	1.048452e+00	1.024819e+00	1.008229e+00	9.998199e-01	9.977447e-01	9.988478e-01	1.000287e+00	1.000308e+00	9.983101e-01	9.945139e-01	9.894785e-01	9.837911e-01	9.779244e-01	9.721567e-01	9.665982e-01	9.612399e-01	9.560343e-01	9.509164e-01	9.458545e-01	9.408325e-01	9.358063e-01	9.307418e-01	9.256557e-01	9.205998e-01	9.156229e-01	9.107438e-01	9.059674e-01	9.013052e-01	8.967743e-01	8.923745e-01	8.881165e-01	8.839827e-01	8.799904e-01	8.761550e-01	8.725285e-01	8.690996e-01	8.658028e-01	8.624895e-01	8.591511e-01	8.559911e-01	8.533666e-01	8.513963e-01	8.497942e-01	8.478914e-01	8.449290e-01	8.403832e-01	8.343683e-01	8.277422e-01	8.217789e-01	8.174031e-01	8.148337e-01	8.138043e-01	8.138763e-01	8.147320e-01	8.161670e-01	8.181288e-01	8.205322e-01	8.232901e-01	8.262911e-01	8.295581e-01	8.332590e-01	8.376428e-01	8.427749e-01	8.485750e-01	8.548956e-01	8.618043e-01	8.694821e-01	8.779861e-01	8.873561e-01	8.977040e-01	9.090895e-01	9.216650e-01	9.355493e-01	9.509337e-01	9.680972e-01	9.872691e-01	1.008810e+00	1.033206e+00	1.060772e+00	1.092037e+00	1.127463e+00	1.166884e+00	1.209825e+00	1.254563e+00	1.298061e+00	1.331734e+00	1.350883e+00	1.339626e+00	1.308557e+00	1.284738e+00	1.221961e+00	1.100878e+00	1.003605e+00	9.274839e-01	8.714522e-01	8.331095e-01	8.077913e-01	7.906935e-01	7.790726e-01	7.712283e-01	7.659858e-01	7.627807e-01	7.608700e-01	7.598752e-01	7.597905e-01	7.604857e-01	7.617220e-01	7.631760e-01	7.645157e-01	7.657516e-01	7.672072e-01	7.691465e-01	7.714240e-01	7.736381e-01	7.755540e-01	7.772591e-01	7.789008e-01	7.805843e-01	7.823822e-01	7.843520e-01	7.864774e-01	7.886861e-01	7.908783e-01	7.930135e-01	7.950712e-01	7.970438e-01	7.988898e-01	8.006175e-01	8.023576e-01	8.043798e-01	8.069294e-01	8.101282e-01	8.139129e-01	8.181072e-01	8.224681e-01	8.267482e-01	8.308510e-01	8.348378e-01	8.389135e-01	8.432271e-01	8.479270e-01	8.531442e-01	8.589718e-01	8.652923e-01	8.718557e-01	8.785088e-01	8.853209e-01	8.924824e-01	9.000326e-01	9.079078e-01	9.160199e-01	9.243244e-01	9.328113e-01	9.414497e-01	9.502252e-01	9.590877e-01	9.680200e-01	9.769482e-01	9.858748e-01	9.947169e-01	1.003394e+00	1.011843e+00	1.019980e+00	1.027757e+00	1.035154e+00	1.042216e+00	1.049125e+00	1.056139e+00	1.063649e+00	1.071955e+00	1.081152e+00	1.090858e+00	1.100209e+00	1.107950e+00	1.112741e+00	1.113486e+00	1.109821e+00	1.102508e+00	1.093721e+00	1.086552e+00	1.083988e+00	1.087878e+00	1.098112e+00	1.112723e+00	1.129929e+00	1.148427e+00	1.168611e+00	1.192707e+00	1.181130e+00	9.999766e-01	9.999701e-01	9.999538e-01	9.999303e-01	9.999067e-01	9.998791e-01	9.998400e-01	9.997855e-01	9.997235e-01	9.996720e-01	9.996378e-01	9.996492e-01	9.997031e-01	9.998127e-01	9.999069e-01	9.999828e-01	1.000025e+00	1.000050e+00	1.000064e+00	1.000070e+00	1.000073e+00	1.000074e+00	1.000074e+00	1.000076e+00	1.000077e+00	1.000080e+00	1.000085e+00	1.000091e+00	1.000101e+00	1.000114e+00	1.000128e+00	1.000149e+00	1.000168e+00	1.000194e+00	1.000211e+00	1.000221e+00	1.000221e+00	1.000208e+00	1.000197e+00	1.000185e+00	1.000179e+00	1.000164e+00	1.000147e+00	1.000127e+00	1.000104e+00	1.000077e+00	1.000059e+00	1.000045e+00	1.000013e+00	9.999796e-01	9.434921e-01	9.017280e-01	8.239964e-01	9.237082e-01	8.408365e-01	1.183082e+00	1.173606e+00	9.405068e-01	9.109392e-01	1.217650e+00	9.305212e-01	8.727051e-01	1.151807e+00	1.145088e+00	8.793055e-01	9.205671e-01	1.307904e+00	1.136122e+00	1.123749e+00	1.337692e+00	8.973106e-01	9.606278e-01	9.504566e-01	8.068510e-01	9.712109e-01	7.935378e-01	9.823353e-01	8.791948e-01	9.929700e-01	9.162581e-01	1.000422e+00	1.344707e+00	1.005930e+00	1.002821e+00	1.100009e+00	8.522175e-01	9.767288e-01	1.025267e+00	1.107481e+00	1.065605e+00	8.477165e-01	9.972912e-01	9.355340e-01	1.164200e+00	8.848065e-01	8.537021e-01	8.703594e-01	8.574870e-01	8.637275e-01	8.604158e-01	8.675075e-01	1.042435e+00	8.462722e-01	9.767888e-01	8.499852e-01	8.195990e-01	8.278775e-01	1.018075e+00	8.179570e-01	1.003439e+00	8.537087e-01	8.342178e-01	9.045180e-01	8.841358e-01	8.771896e-01	8.424842e-01	8.888545e-01	9.878533e-01	1.069654e+00	1.157722e+00	1.209126e+00	8.237740e-01	1.002169e+00	1.012636e+00	1.087692e+00	1.134827e+00	9.658509e-01	8.221080e-01	8.736939e-01	9.255092e-01	9.454647e-01	8.753862e-01	8.275116e-01	8.809097e-01	9.062791e-01	9.592873e-01	1.248725e+00	1.133576e+00	8.342866e-01	8.380580e-01	1.211166e+00	8.246058e-01	8.938434e-01	8.181166e-01	8.201259e-01	8.552777e-01	9.157036e-01	1.280138e+00	1.318488e+00	8.545284e-01	1.324750e+00	7.949980e-01	7.739898e-01	7.807355e-01	7.747955e-01	8.195963e-01	1.140157e+00	8.495756e-01	8.367941e-01	1.097214e+00	1.105955e+00	1.052484e+00	8.408551e-01	8.284402e-01	8.119803e-01	1.083813e+00	1.067227e+00	7.723210e-01	1.092406e+00	1.106733e+00	1.099216e+00	7.732125e-01	7.725290e-01	7.996591e-01	7.956337e-01	7.828507e-01	8.033240e-01	8.327161e-01	8.155157e-01	7.799732e-01	7.763885e-01	8.928624e-01	7.857485e-01	7.893551e-01	9.077640e-01	8.661933e-01	9.573468e-01	9.402915e-01	9.918002e-01	9.746096e-01	1.024177e+00	1.008501e+00	1.059634e+00	1.038659e+00	1.104371e+00	1.075357e+00	1.102385e+00	1.031559e+00	1.045575e+00	1.000242e+00	1.016487e+00	9.659737e-01	9.832470e-01	9.319242e-01	9.487718e-01	9.001330e-01	9.156416e-01	8.600613e-01	8.859586e-01	7.874498e-01	7.914205e-01	7.814770e-01	7.842438e-01	7.766547e-01	7.782512e-01	8.470074e-01	7.866098e-01	8.307397e-01	9.826257e-01	1.043685e+00	9.555036e-01	8.228032e-01	8.670803e-01	1.054577e+00	8.069669e-01	9.236266e-01	7.727794e-01	7.720895e-01	7.976756e-01	7.737694e-01	1.090185e+00	1.092236e+00	8.015520e-01	1.099235e+00	1.110304e+00	8.050211e-01	8.090980e-01	1.092050e+00	1.206470e+00	1.157919e+00	1.174440e+00	8.930157e-01	9.962951e-01	1.124329e+00	8.450658e-01	1.286687e+00	1.170243e+00	9.291975e-01	8.603288e-01	8.186998e-01	7.844411e-01	1.200179e+00	1.259955e+00	8.235727e-01	9.161914e-01	1.003138e+00	1.199552e+00	8.740572e-01	9.115392e-01	9.453976e-01	1.133437e+00	8.257113e-01	9.760483e-01	9.655126e-01	9.118142e-01	1.317282e+00	8.358674e-01	1.132590e+00	1.041572e+00	8.596511e-01	9.209260e-01	9.025622e-01	8.578686e-01	9.237671e-01	8.472708e-01	9.963474e-01	9.502961e-01	9.573286e-01	8.551188e-01	9.157794e-01	1.020783e+00	7.822702e-01	9.235948e-01	7.875403e-01	1.042065e+00	1.100503e+00	8.098893e-01	8.518206e-01	1.099757e+00	1.048868e+00	1.108256e+00	1.101012e+00	1.094521e+00	7.967156e-01	8.081060e-01	7.947803e-01	7.821577e-01	9.070045e-01	8.396608e-01	9.146297e-01	7.852333e-01	7.935293e-01	1.098109e+00	1.118948e+00	1.055732e+00	8.535343e-01	1.215366e+00	1.145779e+00	1.131552e+00	1.009977e+00	1.134285e+00	1.234064e+00	1.331119e+00	1.315249e+00	1.101938e+00	1.217663e+00	9.512176e-01	1.163087e+00	1.148645e+00	8.259873e-01	8.752529e-01	1.123113e+00	9.867247e-01	8.805692e-01	1.141740e+00	1.332429e+00	8.563761e-01	8.217218e-01	9.707281e-01	8.026395e-01	9.814157e-01	9.917851e-01	9.368533e-01	1.000167e+00	1.005453e+00	1.017310e+00	1.048148e+00	1.027371e+00	1.058806e+00	1.110091e+00	8.739849e-01	9.356194e-01	9.405269e-01	1.155441e+00	8.597625e-01	8.623777e-01	8.654806e-01	1.073930e+00	8.517090e-01	8.545980e-01	8.296396e-01	1.003637e+00	1.007740e+00	1.011182e+00	8.665122e-01	9.009091e-01	8.786507e-01	8.900062e-01	1.077063e+00	1.094568e+00	9.257344e-01	9.306722e-01	8.910580e-01	8.821166e-01	8.822660e-01	8.860493e-01	9.845106e-01	9.670895e-01	1.165192e+00	8.351606e-01	8.414412e-01	8.483261e-01	8.437687e-01	8.324468e-01	8.294215e-01	8.230194e-01	8.236172e-01	8.269023e-01	1.298633e+00	1.267571e+00	7.998005e-01	1.095806e+00	8.565425e-01	8.474262e-01	8.432320e-01	8.390739e-01	1.095715e+00	1.100254e+00	1.077471e+00	8.348567e-01	8.304521e-01	8.178958e-01	1.070070e+00	1.096378e+00	7.861805e-01	7.890761e-01	7.986986e-01	8.006734e-01	7.863815e-01	7.841327e-01	7.830363e-01	9.892471e-01	9.560719e-01	9.478023e-01	9.810302e-01	1.013233e+00	1.062767e+00	1.035162e+00	1.028079e+00	1.005475e+00	9.974539e-01	9.727042e-01	9.643765e-01	9.396239e-01	9.315397e-01	9.081604e-01	9.007944e-01	8.676603e-01	8.617714e-01	8.937900e-01	8.870833e-01	7.929543e-01	7.913410e-01	7.899395e-01	7.887177e-01	8.812653e-01	8.083823e-01	8.199036e-01	9.552822e-01	9.603656e-01	8.687409e-01	8.719655e-01	1.070592e+00	8.351006e-01	7.826198e-01	7.833686e-01	8.063760e-01	8.045505e-01	8.146534e-01	8.119942e-01	1.091181e+00	1.084677e+00	8.940642e-01	8.982624e-01	1.024734e+00	1.297466e+00	8.249072e-01	1.311685e+00	8.535476e-01	8.289097e-01	9.507957e-01	8.774387e-01	1.007279e+00	1.107247e+00	1.101183e+00	1.096670e+00	1.081891e+00	1.115908e+00	1.160539e+00	1.181449e+00	1.153186e+00	1.200931e+00	1.103618e+00	1.283511e+00	9.195243e-01	1.010697e+00	1.131623e+00	8.760957e-01	1.172943e+00	1.220838e+00	9.219617e-01	1.276012e+00	9.266348e-01	1.131141e+00	9.861432e-01	1.190633e+00	8.324437e-01	9.810055e-01	9.173515e-01	1.139513e+00	1.160599e+00	1.095959e+00	8.592253e-01	1.093361e+00	9.167450e-01	1.125915e+00	8.545854e-01	8.057993e-01	8.131587e-01	7.927508e-01	7.992494e-01	1.171561e+00	1.293365e+00	1.185402e+00	9.093094e-01	1.241124e+00	1.055091e+00	9.315766e-01	1.312299e+00	8.658403e-01	8.625648e-01	1.077663e+00	9.826382e-01	1.017979e+00	9.874677e-01	9.242912e-01	1.097465e+00	1.095733e+00	1.051923e+00	1.045307e+00	8.113902e-01	8.077227e-01	8.001959e-01	7.910480e-01	9.083940e-01	9.128229e-01	8.452695e-01	9.427600e-01	7.918957e-01	1.095965e+00	1.136203e+00	1.029694e+00	1.134857e+00	1.249593e+00	1.315113e+00	1.053253e+00	1.186202e+00	1.178468e+00	1.070326e+00	1.122789e+00	8.825171e-01	8.609711e-01	8.282836e-01	9.706311e-01	9.758087e-01	9.911409e-01	9.958400e-01	9.591036e-01	9.447641e-01	1.000098e+00	1.003889e+00	1.029535e+00	1.041104e+00	1.112270e+00	9.411581e-01	9.459898e-01	1.146023e+00	8.648107e-01	8.677607e-01	8.572265e-01	8.594567e-01	1.031112e+00	1.014895e+00	1.020884e+00	8.808142e-01	8.729767e-01	8.807617e-01	8.842657e-01	1.085542e+00	1.099671e+00	9.314189e-01	9.363361e-01	9.084964e-01	8.982848e-01	8.891070e-01	8.879431e-01	8.918000e-01	1.010974e+00	9.921896e-01	9.748404e-01	8.368569e-01	8.425519e-01	8.484647e-01	8.598287e-01	8.545224e-01	8.497124e-01	8.412861e-01	8.377133e-01	8.286800e-01	8.297072e-01	8.346510e-01	8.178525e-01	8.501377e-01	8.458022e-01	1.096510e+00	8.415592e-01	8.371860e-01	8.326966e-01	8.242319e-01	1.071917e+00	8.037126e-01	8.097946e-01	8.038709e-01	8.020077e-01	7.913263e-01	7.911559e-01	7.910000e-01	9.556242e-01	1.065273e+00	1.058537e+00	1.038653e+00	1.031951e+00	1.025133e+00	1.010589e+00	1.003079e+00	9.953396e-01	9.796032e-01	9.716263e-01	9.636237e-01	9.476843e-01	9.397817e-01	9.319942e-01	9.093733e-01	8.697755e-01	8.642645e-01	9.022997e-01	8.955150e-01	8.889545e-01	7.985133e-01	7.969774e-01	7.956957e-01	7.945980e-01	7.936651e-01	8.285851e-01	8.425459e-01	9.556512e-01	9.606126e-01	9.655705e-01	8.709504e-01	8.741692e-01	8.602014e-01	8.820242e-01	7.919549e-01	7.937929e-01	7.961410e-01	8.096078e-01	8.207020e-01	8.177248e-01	8.151924e-01	1.089511e+00	1.084412e+00	1.078433e+00	8.957707e-01	8.998672e-01	9.040694e-01	8.320799e-01	8.301490e-01	1.290034e+00	9.273994e-01	1.129321e+00	1.097645e+00	8.828230e-01	1.262166e+00	1.159488e+00	1.013036e+00	1.017974e+00	1.057032e+00	1.112645e+00	8.580742e-01	1.271335e+00	9.665479e-01	1.206324e+00	1.092476e+00	1.120586e+00	1.172489e+00	9.177189e-01	1.131141e+00	1.185410e+00	1.188072e+00	9.561374e-01	8.732850e-01	1.103852e+00	8.600263e-01	9.395666e-01	8.661156e-01	8.354991e-01	1.100988e+00	8.783419e-01	1.090414e+00	1.087397e+00	9.864457e-01	7.990937e-01	8.095570e-01	1.122169e+00	8.182568e-01	9.863802e-01	1.146666e+00	1.105949e+00	1.144096e+00	1.078641e+00	1.128192e+00	9.231018e-01	1.231590e+00	9.282185e-01	9.323153e-01	1.154267e+00	1.129999e+00	1.180611e+00	1.015380e+00	8.615743e-01	8.151618e-01	1.219780e+00	1.002961e+00	9.257703e-01	1.048593e+00	8.169995e-01	8.133351e-01	8.114129e-01	9.141707e-01	9.191755e-01	1.095690e+00	1.043130e+00	1.087153e+00	1.254763e+00	1.296891e+00	1.079732e+00	1.065687e+00	1.113140e+00	8.855038e-01	9.762593e-01	9.812535e-01	9.912632e-01	9.960074e-01	9.667673e-01	9.526234e-01	1.000438e+00	1.004713e+00	1.008851e+00	1.041445e+00	1.053049e+00	9.465367e-01	9.517705e-01	1.137284e+00	8.680090e-01	8.706784e-01	8.628406e-01	8.646320e-01	1.023914e+00	1.031591e+00	8.884159e-01	8.799466e-01	8.869050e-01	1.091126e+00	1.102784e+00	9.374428e-01	9.427231e-01	9.161996e-01	9.060636e-01	8.970921e-01	8.898728e-01	8.942537e-01	1.036914e+00	1.017431e+00	9.988594e-01	9.819751e-01	8.403085e-01	8.449533e-01	8.503507e-01	8.555709e-01	8.673049e-01	8.617686e-01	8.565690e-01	8.519059e-01	8.477237e-01	8.371579e-01	8.355873e-01	8.440863e-01	8.532206e-01	1.094611e+00	1.093730e+00	8.488553e-01	8.444891e-01	8.400193e-01	8.355574e-01	8.313219e-01	8.264740e-01	8.368586e-01	8.077302e-01	8.060979e-01	7.988967e-01	7.992186e-01	8.000033e-01	8.007790e-01	1.067175e+00	1.061071e+00	1.054904e+00	1.042243e+00	1.035920e+00	1.029575e+00	1.022117e+00	1.009148e+00	1.001099e+00	9.936747e-01	9.784888e-01	9.712467e-01	9.630938e-01	9.559345e-01	9.476952e-01	9.407072e-01	9.325133e-01	8.673179e-01	8.717999e-01	9.113362e-01	9.036585e-01	8.977752e-01	8.905666e-01	8.045124e-01	8.031503e-01	8.018244e-01	8.008055e-01	7.999110e-01	7.993205e-01	8.491056e-01	8.647359e-01	9.613516e-01	9.665231e-01	9.712850e-01	8.738437e-01	8.761683e-01	8.800761e-01	8.843163e-01	9.074102e-01	9.343713e-01	8.019179e-01	8.042530e-01	8.081058e-01	8.126082e-01	8.275146e-01	8.242597e-01	8.214693e-01	8.189218e-01	1.073064e+00	1.083353e+00	1.078593e+00	8.975042e-01	9.021218e-01	9.056160e-01	9.104415e-01	8.409234e-01	8.383734e-01	8.364831e-01	1.147941e+00	1.125311e+00	1.073699e+00	1.177461e+00	1.171197e+00	9.361042e-01	9.356521e-01	1.193474e+00	1.096503e+00	1.235415e+00	1.080786e+00	8.820649e-01	8.069269e-01	1.019172e+00	1.127617e+00	1.235269e+00	1.292516e+00	1.294551e+00	1.281731e+00	1.250923e+00	1.138761e+00	8.213110e-01	1.084578e+00	1.121570e+00	1.026441e+00	9.593287e-01	8.664203e-01	1.115892e+00	1.068756e+00	1.082090e+00	8.774071e-01	8.679637e-01	9.230741e-01	9.815941e-01	8.615200e-01	8.872235e-01	8.224776e-01	1.109639e+00	9.477589e-01	1.165187e+00	1.099774e+00	1.292743e+00	1.182402e+00	1.173249e+00	1.019597e+00	1.060895e+00	1.266872e+00	9.863106e-01	1.215170e+00	1.088088e+00	1.162432e+00	1.177072e+00	1.178086e+00	1.125308e+00	8.421666e-01	8.428249e-01	1.104087e+00	8.876893e-01	1.085463e+00	1.113515e+00	9.272661e-01	1.200527e+00	8.187209e-01	8.175417e-01	8.149717e-01	9.184755e-01	1.053768e+00	1.090479e+00	1.275437e+00	1.103476e+00	9.823538e-01	9.864783e-01	9.918682e-01	9.963042e-01	9.605979e-01	9.748901e-01	1.001443e+00	1.005444e+00	1.010400e+00	1.015482e+00	1.051995e+00	1.062682e+00	9.505401e-01	1.128612e+00	8.711037e-01	8.739476e-01	8.678976e-01	8.701506e-01	1.033892e+00	1.042122e+00	8.957917e-01	8.867191e-01	1.095055e+00	1.104761e+00	9.440917e-01	9.241138e-01	9.132373e-01	9.065452e-01	8.944099e-01	1.041936e+00	1.023290e+00	1.005439e+00	9.898986e-01	8.450751e-01	8.475315e-01	8.527527e-01	8.570983e-01	8.623345e-01	8.743087e-01	8.699002e-01	8.628729e-01	8.593818e-01	8.537093e-01	1.094062e+00	1.092132e+00	1.090257e+00	8.559550e-01	8.522609e-01	8.470412e-01	8.432447e-01	8.381188e-01	8.439928e-01	8.562290e-01	8.140011e-01	8.116694e-01	8.063265e-01	8.091452e-01	8.111610e-01	1.062871e+00	1.057449e+00	1.051383e+00	1.045559e+00	1.039353e+00	1.033420e+00	1.026591e+00	1.016713e+00	1.007323e+00	9.956531e-01	9.669437e-01	9.521848e-01	9.375226e-01	9.091495e-01	8.967953e-01	8.110860e-01	8.089992e-01	8.087867e-01	8.068605e-01	8.072304e-01	8.065096e-01	8.064967e-01	8.705864e-01	8.868555e-01	9.675113e-01	9.719960e-01	9.770513e-01	8.770318e-01	8.808640e-01	9.068815e-01	9.308455e-01	9.568879e-01	8.131825e-01	8.162191e-01	8.211574e-01	8.282522e-01	8.354391e-01	8.348858e-01	8.305657e-01	8.285626e-01	8.254536e-01	1.078307e+00	1.073060e+00	9.020169e-01	9.100401e-01	8.511905e-01	8.467299e-01	8.453733e-01	8.424719e-01	1.166106e+00	1.154352e+00	1.181119e+00	1.255226e+00	1.180689e+00	1.088619e+00	1.106533e+00	1.183733e+00	1.086449e+00	1.141077e+00	1.105966e+00	1.255472e+00	1.081575e+00	1.161472e+00	8.278508e-01	1.177729e+00	1.061381e+00	1.152709e+00	1.141318e+00	1.079420e+00	8.885467e-01	1.101698e+00	8.494330e-01	1.035085e+00	1.024690e+00	9.103206e-01	9.436208e-01	8.859068e-01	1.231299e+00	8.725423e-01	9.696249e-01	9.567471e-01	8.165645e-01	1.094248e+00	1.066147e+00	1.213187e+00	1.031419e+00	1.070041e+00	1.170724e+00	1.097573e+00	1.291540e+00	1.245104e+00	1.113771e+00	9.438827e-01	8.706768e-01	8.615643e-01	1.112107e+00	1.173873e+00	1.129496e+00	1.275418e+00	1.176746e+00	1.063969e+00	1.217017e+00	1.199815e+00	8.881065e-01	1.101352e+00	1.084006e+00	1.080412e+00	8.787261e-01	8.239522e-01	8.203595e-01	9.355952e-01	1.092254e+00	1.123166e+00	1.122036e+00	9.899386e-01	9.993228e-01	9.825037e-01	1.008914e+00	1.017387e+00	1.060588e+00	1.121025e+00	8.758771e-01	1.043300e+00	1.051452e+00	8.990344e-01	1.097475e+00	9.511084e-01	9.585085e-01	9.274280e-01	9.139834e-01	8.951655e-01	1.046319e+00	1.027712e+00	1.010895e+00	9.993121e-01	8.533613e-01	8.612474e-01	8.687977e-01	8.735063e-01	8.631935e-01	1.091472e+00	1.088993e+00	8.523684e-01	8.435813e-01	8.759009e-01	8.175015e-01	8.218877e-01	1.003427e+00	1.056206e+00	1.044998e+00	1.033478e+00	1.022908e+00	1.013531e+00	9.911043e-01	9.774465e-01	9.633793e-01	9.492678e-01	9.351480e-01	9.212502e-01	9.085987e-01	8.979914e-01	8.154371e-01	8.141214e-01	8.143359e-01	8.130754e-01	8.151656e-01	8.921896e-01	9.091249e-01	9.670192e-01	9.751131e-01	9.830601e-01	8.798387e-01	8.835462e-01	9.283475e-01	9.514886e-01	9.766736e-01	1.002815e+00	8.257507e-01	8.294052e-01	8.350283e-01	8.435967e-01	8.545399e-01	8.605992e-01	8.364949e-01	8.324336e-01	1.077885e+00	1.073390e+00	9.025622e-01	9.184383e-01	9.269303e-01	8.553718e-01	8.504567e-01	1.117367e+00	1.166040e+00	1.161204e+00	1.136229e+00	1.025117e+00	1.108355e+00	1.173801e+00	1.135651e+00	1.185621e+00	1.135106e+00	1.147634e+00	1.126805e+00	1.092850e+00	1.193885e+00	1.235763e+00	1.088389e+00	9.513450e-01	8.356514e-01	1.125020e+00	1.017010e+00	1.099291e+00	8.875595e-01	1.067006e+00	1.169553e+00	8.756193e-01	1.043510e+00	9.187193e-01	8.963826e-01	1.083532e+00	1.091458e+00	1.081982e+00	1.066774e+00	1.171386e+00	1.098730e+00	1.103062e+00	1.082876e+00	8.277142e-01	8.987939e-01	9.353233e-01	9.893072e-01	1.150497e+00	1.157243e+00	1.272196e+00	1.075355e+00	1.085485e+00	1.175649e+00	1.099211e+00	1.169337e+00	1.152222e+00	8.906179e-01	1.225014e+00	9.795135e-01	9.641865e-01	1.094850e+00	1.233841e+00	1.067193e+00	1.106583e+00	9.436498e-01	1.254475e+00	1.176127e+00	1.004855e+00	1.213175e+00	1.200201e+00	8.805048e-01	1.117480e+00	1.079408e+00	8.892002e-01	8.314061e-01	9.090795e-01	1.118665e+00	1.143752e+00	9.978696e-01	1.007439e+00	1.025298e+00	1.034226e+00	1.114294e+00	8.792317e-01	1.051201e+00	1.058970e+00	8.698398e-01	9.746629e-01	9.826091e-01	9.586039e-01	9.495259e-01	9.342343e-01	9.194192e-01	1.048772e+00	8.579275e-01	8.627483e-01	9.050102e-01	8.911046e-01	9.268965e-01	1.091461e+00	8.718184e-01	8.626627e-01	8.326253e-01	1.059600e+00	1.049678e+00	1.010014e+00	1.039033e+00	1.028746e+00	1.019336e+00	9.993429e-01	9.870240e-01	9.738332e-01	9.603813e-01	9.468083e-01	9.332137e-01	9.203761e-01	8.248098e-01	8.229716e-01	8.220796e-01	8.221175e-01	8.223229e-01	8.267526e-01	9.123487e-01	9.306483e-01	9.663885e-01	9.898434e-01	8.824144e-01	8.861126e-01	9.486708e-01	9.696308e-01	9.932076e-01	1.016745e+00	1.041336e+00	8.397588e-01	8.456250e-01	8.510387e-01	8.593300e-01	8.715167e-01	8.536959e-01	8.459933e-01	8.402930e-01	1.074635e+00	1.067913e+00	9.033176e-01	9.108647e-01	8.786535e-01	8.685924e-01	8.613558e-01	8.575004e-01	1.152313e+00	1.153009e+00	1.149713e+00	1.121103e+00	1.156343e+00	1.140357e+00	1.113881e+00	1.050439e+00	1.172807e+00	1.120710e+00	1.117954e+00	1.071715e+00	1.165999e+00	1.084812e+00	8.325099e-01	1.137633e+00	1.141623e+00	1.128227e+00	1.169441e+00	1.071237e+00	9.255545e-01	1.026727e+00	1.024850e+00	9.592521e-01	1.132835e+00	1.131978e+00	1.128167e+00	1.171853e+00	1.172217e+00	9.003837e-01	9.277431