# vtk DataFile Version 3.0
vtk output
ASCII
DATASET UNSTRUCTURED_GRID
POINTS 200 double
9.997500e-01	-3.633244e-05	0.0	9.990000e-01	-1.454731e-04	0.0	9.977600e-01	-3.275154e-04	0.0	9.960200e-01	-5.899706e-04	0.0	9.937800e-01	-9.472521e-04	0.0	9.910500e-01	-1.422533e-03	0.0	9.878400e-01	-2.046514e-03	0.0	9.841300e-01	-2.855643e-03	0.0	9.799500e-01	-3.862317e-03	0.0	9.752800e-01	-5.063720e-03	0.0	9.701500e-01	-6.412943e-03	0.0	9.645400e-01	-7.851362e-03	0.0	9.584700e-01	-9.303440e-03	0.0	9.519400e-01	-1.071366e-02	0.0	9.449600e-01	-1.205399e-02	0.0	9.375400e-01	-1.332880e-02	0.0	9.296900e-01	-1.456544e-02	0.0	9.214000e-01	-1.580227e-02	0.0	9.127000e-01	-1.706656e-02	0.0	9.035800e-01	-1.837937e-02	0.0	8.940600e-01	-1.974432e-02	0.0	8.841500e-01	-2.115678e-02	0.0	8.738500e-01	-2.260850e-02	0.0	8.631800e-01	-2.408736e-02	0.0	8.521600e-01	-2.558271e-02	0.0	8.407700e-01	-2.709137e-02	0.0	8.290500e-01	-2.860411e-02	0.0	8.170100e-01	-3.011710e-02	0.0	8.046400e-01	-3.162952e-02	0.0	7.919700e-01	-3.313573e-02	0.0	7.790100e-01	-3.463246e-02	0.0	7.657800e-01	-3.611509e-02	0.0	7.522800e-01	-3.758107e-02	0.0	7.385200e-01	-3.902654e-02	0.0	7.245300e-01	-4.044563e-02	0.0	7.103200e-01	-4.183470e-02	0.0	6.958900e-01	-4.319119e-02	0.0	6.812700e-01	-4.450990e-02	0.0	6.664700e-01	-4.578783e-02	0.0	6.515000e-01	-4.702221e-02	0.0	6.363800e-01	-4.820972e-02	0.0	6.211300e-01	-4.934748e-02	0.0	6.057600e-01	-5.043362e-02	0.0	5.902800e-01	-5.146654e-02	0.0	5.747100e-01	-5.244419e-02	0.0	5.590600e-01	-5.336544e-02	0.0	5.433600e-01	-5.422821e-02	0.0	5.276100e-01	-5.503233e-02	0.0	5.118400e-01	-5.577619e-02	0.0	4.960500e-01	-5.645975e-02	0.0	4.802700e-01	-5.708170e-02	0.0	4.645100e-01	-5.764168e-02	0.0	4.487800e-01	-5.813923e-02	0.0	4.331100e-01	-5.857331e-02	0.0	4.175000e-01	-5.894372e-02	0.0	4.019700e-01	-5.924957e-02	0.0	3.865400e-01	-5.949001e-02	0.0	3.712300e-01	-5.966415e-02	0.0	3.560400e-01	-5.977123e-02	0.0	3.409900e-01	-5.981010e-02	0.0	3.261100e-01	-5.977965e-02	0.0	3.114000e-01	-5.967875e-02	0.0	2.968700e-01	-5.950603e-02	0.0	2.825500e-01	-5.926038e-02	0.0	2.684500e-01	-5.894051e-02	0.0	2.545700e-01	-5.854473e-02	0.0	2.409400e-01	-5.807215e-02	0.0	2.275700e-01	-5.752147e-02	0.0	2.144700e-01	-5.689137e-02	0.0	2.016600e-01	-5.618114e-02	0.0	1.891400e-01	-5.538907e-02	0.0	1.769300e-01	-5.451469e-02	0.0	1.650400e-01	-5.355713e-02	0.0	1.534900e-01	-5.251658e-02	0.0	1.422900e-01	-5.139269e-02	0.0	1.314400e-01	-5.018417e-02	0.0	1.209500e-01	-4.889072e-02	0.0	1.108500e-01	-4.751507e-02	0.0	1.011300e-01	-4.605501e-02	0.0	9.181000e-02	-4.451258e-02	0.0	8.290000e-02	-4.288886e-02	0.0	7.440000e-02	-4.118316e-02	0.0	6.633000e-02	-3.939897e-02	0.0	5.869000e-02	-3.753593e-02	0.0	5.149000e-02	-3.559603e-02	0.0	4.474000e-02	-3.358174e-02	0.0	3.844000e-02	-3.149273e-02	0.0	3.260000e-02	-2.933179e-02	0.0	2.723000e-02	-2.710261e-02	0.0	2.232000e-02	-2.480012e-02	0.0	1.790000e-02	-2.243835e-02	0.0	1.395000e-02	-2.000644e-02	0.0	1.049000e-02	-1.751573e-02	0.0	7.520000e-03	-1.496718e-02	0.0	5.040000e-03	-1.236105e-02	0.0	3.050000e-03	-9.695959e-03	0.0	1.560000e-03	-6.987428e-03	0.0	5.600000e-04	-4.214656e-03	0.0	6.000000e-05	-1.385896e-03	0.0	0.000000e+00	0.000000e+00	0.0	6.000000e-05	1.265645e-03	0.0	5.600000e-04	3.633354e-03	0.0	1.560000e-03	5.804459e-03	0.0	3.050000e-03	7.829842e-03	0.0	5.040000e-03	9.754210e-03	0.0	7.520000e-03	1.158508e-02	0.0	1.049000e-02	1.333734e-02	0.0	1.395000e-02	1.502147e-02	0.0	1.790000e-02	1.664535e-02	0.0	2.232000e-02	1.820860e-02	0.0	2.723000e-02	1.972440e-02	0.0	3.260000e-02	2.118865e-02	0.0	3.844000e-02	2.260910e-02	0.0	4.474000e-02	2.398714e-02	0.0	5.149000e-02	2.532420e-02	0.0	5.869000e-02	2.662334e-02	0.0	6.633000e-02	2.788534e-02	0.0	7.440000e-02	2.911090e-02	0.0	8.290000e-02	3.030198e-02	0.0	9.181000e-02	3.145751e-02	0.0	1.011300e-01	3.257904e-02	0.0	1.108500e-01	3.366655e-02	0.0	1.209500e-01	3.471895e-02	0.0	1.314400e-01	3.573811e-02	0.0	1.422900e-01	3.672177e-02	0.0	1.534900e-01	3.766966e-02	0.0	1.650400e-01	3.858217e-02	0.0	1.769300e-01	3.945862e-02	0.0	1.891400e-01	4.029753e-02	0.0	2.016600e-01	4.109813e-02	0.0	2.144700e-01	4.185892e-02	0.0	2.275700e-01	4.257949e-02	0.0	2.409400e-01	4.325813e-02	0.0	2.545700e-01	4.389358e-02	0.0	2.684500e-01	4.448444e-02	0.0	2.825500e-01	4.502840e-02	0.0	2.968700e-01	4.552430e-02	0.0	3.114000e-01	4.597034e-02	0.0	3.261100e-01	4.636408e-02	0.0	3.409900e-01	4.670365e-02	0.0	3.560400e-01	4.698718e-02	0.0	3.712300e-01	4.721212e-02	0.0	3.865400e-01	4.737619e-02	0.0	4.019700e-01	4.747723e-02	0.0	4.175000e-01	4.751283e-02	0.0	4.331100e-01	4.748066e-02	0.0	4.487800e-01	4.737851e-02	0.0	4.645100e-01	4.720406e-02	0.0	4.802700e-01	4.695535e-02	0.0	4.960500e-01	4.663040e-02	0.0	5.118400e-01	4.622731e-02	0.0	5.276100e-01	4.574496e-02	0.0	5.433600e-01	4.518171e-02	0.0	5.590600e-01	4.453720e-02	0.0	5.747100e-01	4.381034e-02	0.0	5.902800e-01	4.300180e-02	0.0	6.057600e-01	4.211186e-02	0.0	6.211300e-01	4.114191e-02	0.0	6.363800e-01	4.009337e-02	0.0	6.515000e-01	3.896817e-02	0.0	6.664700e-01	3.776968e-02	0.0	6.812700e-01	3.650212e-02	0.0	6.958900e-01	3.516961e-02	0.0	7.103200e-01	3.377696e-02	0.0	7.245300e-01	3.233172e-02	0.0	7.385200e-01	3.083921e-02	0.0	7.522800e-01	2.930636e-02	0.0	7.657800e-01	2.774306e-02	0.0	7.790100e-01	2.615765e-02	0.0	7.919700e-01	2.455778e-02	0.0	8.046400e-01	2.295395e-02	0.0	8.170100e-01	2.135578e-02	0.0	8.290500e-01	1.977563e-02	0.0	8.407700e-01	1.822029e-02	0.0	8.521600e-01	1.669820e-02	0.0	8.631800e-01	1.522018e-02	0.0	8.738500e-01	1.378672e-02	0.0	8.841500e-01	1.240102e-02	0.0	8.940600e-01	1.106424e-02	0.0	9.035800e-01	9.774657e-03	0.0	9.127000e-01	8.534951e-03	0.0	9.214000e-01	7.356061e-03	0.0	9.296900e-01	6.254591e-03	0.0	9.375400e-01	5.261576e-03	0.0	9.449600e-01	4.406263e-03	0.0	9.519400e-01	3.713644e-03	0.0	9.584700e-01	3.189835e-03	0.0	9.645400e-01	2.814553e-03	0.0	9.701500e-01	2.542739e-03	0.0	9.752800e-01	2.318341e-03	0.0	9.799500e-01	2.088923e-03	0.0	9.841300e-01	1.824642e-03	0.0	9.878400e-01	1.518690e-03	0.0	9.910500e-01	1.189670e-03	0.0	9.937800e-01	8.628296e-04	0.0	9.960200e-01	5.665732e-04	0.0	9.977600e-01	3.231784e-04	0.0	9.990000e-01	1.450774e-04	0.0	9.997500e-01	3.632617e-05	0.0	1.000000e+00	0.000000e+00	0.0	
CELLS 200	600
2	199	0	2	0	1	2	1	2	2	2	3	2	3	4	2	4	5	2	5	6	2	6	7	2	7	8	2	8	9	2	9	10	2	10	11	2	11	12	2	12	13	2	13	14	2	14	15	2	15	16	2	16	17	2	17	18	2	18	19	2	19	20	2	20	21	2	21	22	2	22	23	2	23	24	2	24	25	2	25	26	2	26	27	2	27	28	2	28	29	2	29	30	2	30	31	2	31	32	2	32	33	2	33	34	2	34	35	2	35	36	2	36	37	2	37	38	2	38	39	2	39	40	2	40	41	2	41	42	2	42	43	2	43	44	2	44	45	2	45	46	2	46	47	2	47	48	2	48	49	2	49	50	2	50	51	2	51	52	2	52	53	2	53	54	2	54	55	2	55	56	2	56	57	2	57	58	2	58	59	2	59	60	2	60	61	2	61	62	2	62	63	2	63	64	2	64	65	2	65	66	2	66	67	2	67	68	2	68	69	2	69	70	2	70	71	2	71	72	2	72	73	2	73	74	2	74	75	2	75	76	2	76	77	2	77	78	2	78	79	2	79	80	2	80	81	2	81	82	2	82	83	2	83	84	2	84	85	2	85	86	2	86	87	2	87	88	2	88	89	2	89	90	2	90	91	2	91	92	2	92	93	2	93	94	2	94	95	2	95	96	2	96	97	2	97	98	2	98	99	2	99	100	2	100	101	2	101	102	2	102	103	2	103	104	2	104	105	2	105	106	2	106	107	2	107	108	2	108	109	2	109	110	2	110	111	2	111	112	2	112	113	2	113	114	2	114	115	2	115	116	2	116	117	2	117	118	2	118	119	2	119	120	2	120	121	2	121	122	2	122	123	2	123	124	2	124	125	2	125	126	2	126	127	2	127	128	2	128	129	2	129	130	2	130	131	2	131	132	2	132	133	2	133	134	2	134	135	2	135	136	2	136	137	2	137	138	2	138	139	2	139	140	2	140	141	2	141	142	2	142	143	2	143	144	2	144	145	2	145	146	2	146	147	2	147	148	2	148	149	2	149	150	2	150	151	2	151	152	2	152	153	2	153	154	2	154	155	2	155	156	2	156	157	2	157	158	2	158	159	2	159	160	2	160	161	2	161	162	2	162	163	2	163	164	2	164	165	2	165	166	2	166	167	2	167	168	2	168	169	2	169	170	2	170	171	2	171	172	2	172	173	2	173	174	2	174	175	2	175	176	2	176	177	2	177	178	2	178	179	2	179	180	2	180	181	2	181	182	2	182	183	2	183	184	2	184	185	2	185	186	2	186	187	2	187	188	2	188	189	2	189	190	2	190	191	2	191	192	2	192	193	2	193	194	2	194	195	2	195	196	2	196	197	2	197	198	2	198	199	
CELL_TYPES 200
3	3	3	3	3	3	3	3	3	3	3	3	3	3	3	3	3	3	3	3	3	3	3	3	3	3	3	3	3	3	3	3	3	3	3	3	3	3	3	3	3	3	3	3	3	3	3	3	3	3	3	3	3	3	3	3	3	3	3	3	3	3	3	3	3	3	3	3	3	3	3	3	3	3	3	3	3	3	3	3	3	3	3	3	3	3	3	3	3	3	3	3	3	3	3	3	3	3	3	3	3	3	3	3	3	3	3	3	3	3	3	3	3	3	3	3	3	3	3	3	3	3	3	3	3	3	3	3	3	3	3	3	3	3	3	3	3	3	3	3	3	3	3	3	3	3	3	3	3	3	3	3	3	3	3	3	3	3	3	3	3	3	3	3	3	3	3	3	3	3	3	3	3	3	3	3	3	3	3	3	3	3	3	3	3	3	3	3	3	3	3	3	3	3	3	3	3	3	3	3	
POINT_DATA 200

SCALARS Density double 1
LOOKUP_TABLE default
1.199842e+00	1.181633e+00	1.171229e+00	1.164813e+00	1.160263e+00	1.155818e+00	1.148946e+00	1.138029e+00	1.121836e+00	1.100453e+00	1.075121e+00	1.048452e+00	1.024819e+00	1.008229e+00	9.998199e-01	9.977447e-01	9.988478e-01	1.000287e+00	1.000308e+00	9.983101e-01	9.945139e-01	9.894785e-01	9.837911e-01	9.779244e-01	9.721567e-01	9.665982e-01	9.612399e-01	9.560343e-01	9.509164e-01	9.458545e-01	9.408325e-01	9.358063e-01	9.307418e-01	9.256557e-01	9.205998e-01	9.156229e-01	9.107438e-01	9.059674e-01	9.013052e-01	8.967743e-01	8.923745e-01	8.881165e-01	8.839827e-01	8.799904e-01	8.761550e-01	8.725285e-01	8.690996e-01	8.658028e-01	8.624895e-01	8.591511e-01	8.559911e-01	8.533666e-01	8.513963e-01	8.497942e-01	8.478914e-01	8.449290e-01	8.403832e-01	8.343683e-01	8.277422e-01	8.217789e-01	8.174031e-01	8.148337e-01	8.138043e-01	8.138763e-01	8.147320e-01	8.161670e-01	8.181288e-01	8.205322e-01	8.232901e-01	8.262911e-01	8.295581e-01	8.332590e-01	8.376428e-01	8.427749e-01	8.485750e-01	8.548956e-01	8.618043e-01	8.694821e-01	8.779861e-01	8.873561e-01	8.977040e-01	9.090895e-01	9.216650e-01	9.355493e-01	9.509337e-01	9.680972e-01	9.872691e-01	1.008810e+00	1.033206e+00	1.060772e+00	1.092037e+00	1.127463e+00	1.166884e+00	1.209825e+00	1.254563e+00	1.298061e+00	1.331734e+00	1.350883e+00	1.339626e+00	1.308557e+00	1.284738e+00	1.221961e+00	1.100878e+00	1.003605e+00	9.274839e-01	8.714522e-01	8.331095e-01	8.077913e-01	7.906935e-01	7.790726e-01	7.712283e-01	7.659858e-01	7.627807e-01	7.608700e-01	7.598752e-01	7.597905e-01	7.604857e-01	7.617220e-01	7.631760e-01	7.645157e-01	7.657516e-01	7.672072e-01	7.691465e-01	7.714240e-01	7.736381e-01	7.755540e-01	7.772591e-01	7.789008e-01	7.805843e-01	7.823822e-01	7.843520e-01	7.864774e-01	7.886861e-01	7.908783e-01	7.930135e-01	7.950712e-01	7.970438e-01	7.988898e-01	8.006175e-01	8.023576e-01	8.043798e-01	8.069294e-01	8.101282e-01	8.139129e-01	8.181072e-01	8.224681e-01	8.267482e-01	8.308510e-01	8.348378e-01	8.389135e-01	8.432271e-01	8.479270e-01	8.531442e-01	8.589718e-01	8.652923e-01	8.718557e-01	8.785088e-01	8.853209e-01	8.924824e-01	9.000326e-01	9.079078e-01	9.160199e-01	9.243244e-01	9.328113e-01	9.414497e-01	9.502252e-01	9.590877e-01	9.680200e-01	9.769482e-01	9.858748e-01	9.947169e-01	1.003394e+00	1.011843e+00	1.019980e+00	1.027757e+00	1.035154e+00	1.042216e+00	1.049125e+00	1.056139e+00	1.063649e+00	1.071955e+00	1.081152e+00	1.090858e+00	1.100209e+00	1.107950e+00	1.112741e+00	1.113486e+00	1.109821e+00	1.102508e+00	1.093721e+00	1.086552e+00	1.083988e+00	1.087878e+00	1.098112e+00	1.112723e+00	1.129929e+00	1.148427e+00	1.168611e+00	1.192707e+00	1.181130e+00	
VECTORS Momentum double
7.195383e-01	1.010178e-01	0.0	7.458908e-01	1.066626e-01	0.0	7.639525e-01	1.128608e-01	0.0	7.747281e-01	1.197682e-01	0.0	7.805835e-01	1.302052e-01	0.0	7.853234e-01	1.448594e-01	0.0	7.911035e-01	1.633831e-01	0.0	8.007558e-01	1.838586e-01	0.0	8.157706e-01	2.031312e-01	0.0	8.362027e-01	2.172694e-01	0.0	8.603347e-01	2.230813e-01	0.0	8.848324e-01	2.189830e-01	0.0	9.060410e-01	2.059373e-01	0.0	9.215709e-01	1.877443e-01	0.0	9.308295e-01	1.691412e-01	0.0	9.348119e-01	1.538065e-01	0.0	9.355766e-01	1.433838e-01	0.0	9.352222e-01	1.376330e-01	0.0	9.352108e-01	1.351999e-01	0.0	9.361554e-01	1.344491e-01	0.0	9.381094e-01	1.340824e-01	0.0	9.407712e-01	1.333352e-01	0.0	9.437645e-01	1.319224e-01	0.0	9.467986e-01	1.298723e-01	0.0	9.496868e-01	1.273541e-01	0.0	9.523638e-01	1.245681e-01	0.0	9.548249e-01	1.216480e-01	0.0	9.571126e-01	1.186832e-01	0.0	9.592374e-01	1.156990e-01	0.0	9.612317e-01	1.126829e-01	0.0	9.631308e-01	1.096234e-01	0.0	9.649267e-01	1.064995e-01	0.0	9.666339e-01	1.032999e-01	0.0	9.682499e-01	1.000168e-01	0.0	9.697620e-01	9.663636e-02	0.0	9.711582e-01	9.317337e-02	0.0	9.724528e-01	8.962437e-02	0.0	9.736272e-01	8.600800e-02	0.0	9.746913e-01	8.233068e-02	0.0	9.756606e-01	7.860456e-02	0.0	9.765159e-01	7.484291e-02	0.0	9.772925e-01	7.105290e-02	0.0	9.779639e-01	6.725316e-02	0.0	9.785671e-01	6.344530e-02	0.0	9.790697e-01	5.963684e-02	0.0	9.795128e-01	5.581935e-02	0.0	9.798739e-01	5.199663e-02	0.0	9.802052e-01	4.818124e-02	0.0	9.804747e-01	4.439675e-02	0.0	9.807215e-01	4.064745e-02	0.0	9.808867e-01	3.689733e-02	0.0	9.809973e-01	3.308951e-02	0.0	9.810383e-01	2.920149e-02	0.0	9.810659e-01	2.521953e-02	0.0	9.810992e-01	2.117385e-02	0.0	9.811720e-01	1.710794e-02	0.0	9.812137e-01	1.306835e-02	0.0	9.811437e-01	9.046379e-03	0.0	9.808259e-01	4.937471e-03	0.0	9.803281e-01	5.994745e-04	0.0	9.798153e-01	-4.008213e-03	0.0	9.793915e-01	-8.864223e-03	0.0	9.791331e-01	-1.395605e-02	0.0	9.789754e-01	-1.927132e-02	0.0	9.789191e-01	-2.484821e-02	0.0	9.788729e-01	-3.071500e-02	0.0	9.788593e-01	-3.692851e-02	0.0	9.788065e-01	-4.350577e-02	0.0	9.787281e-01	-5.048052e-02	0.0	9.785567e-01	-5.787310e-02	0.0	9.783062e-01	-6.573135e-02	0.0	9.779234e-01	-7.412037e-02	0.0	9.774111e-01	-8.311087e-02	0.0	9.766891e-01	-9.273547e-02	0.0	9.757448e-01	-1.030369e-01	0.0	9.744375e-01	-1.140681e-01	0.0	9.727871e-01	-1.259410e-01	0.0	9.706992e-01	-1.387235e-01	0.0	9.679419e-01	-1.524917e-01	0.0	9.643607e-01	-1.673713e-01	0.0	9.598646e-01	-1.834814e-01	0.0	9.541603e-01	-2.009355e-01	0.0	9.469835e-01	-2.198903e-01	0.0	9.379147e-01	-2.404814e-01	0.0	9.264358e-01	-2.628300e-01	0.0	9.118151e-01	-2.870543e-01	0.0	8.931160e-01	-3.132240e-01	0.0	8.692581e-01	-3.412817e-01	0.0	8.386629e-01	-3.708351e-01	0.0	7.991743e-01	-4.011428e-01	0.0	7.483024e-01	-4.307131e-01	0.0	6.830034e-01	-4.564149e-01	0.0	5.996302e-01	-4.731450e-01	0.0	4.960199e-01	-4.724665e-01	0.0	3.722581e-01	-4.414706e-01	0.0	2.361728e-01	-3.648157e-01	0.0	1.072647e-01	-2.309361e-01	0.0	1.089337e-02	-3.856352e-02	0.0	-2.143318e-02	1.848615e-01	0.0	5.238839e-03	3.505300e-01	0.0	7.269144e-02	4.947800e-01	0.0	2.094825e-01	6.596192e-01	0.0	4.119338e-01	7.230995e-01	0.0	5.887201e-01	6.889458e-01	0.0	7.141003e-01	6.123876e-01	0.0	7.960578e-01	5.288925e-01	0.0	8.479408e-01	4.543354e-01	0.0	8.810444e-01	3.923916e-01	0.0	9.024285e-01	3.420013e-01	0.0	9.168216e-01	3.008011e-01	0.0	9.268899e-01	2.670649e-01	0.0	9.340659e-01	2.390071e-01	0.0	9.395341e-01	2.154500e-01	0.0	9.438045e-01	1.954374e-01	0.0	9.472266e-01	1.782292e-01	0.0	9.501597e-01	1.633081e-01	0.0	9.526676e-01	1.502865e-01	0.0	9.548363e-01	1.388102e-01	0.0	9.567635e-01	1.286236e-01	0.0	9.584257e-01	1.194535e-01	0.0	9.599076e-01	1.110986e-01	0.0	9.613245e-01	1.034886e-01	0.0	9.626940e-01	9.657403e-02	0.0	9.639281e-01	9.026290e-02	0.0	9.650300e-01	8.442499e-02	0.0	9.659958e-01	7.891234e-02	0.0	9.668819e-01	7.369776e-02	0.0	9.676937e-01	6.875641e-02	0.0	9.684744e-01	6.407957e-02	0.0	9.692211e-01	5.961694e-02	0.0	9.699665e-01	5.533687e-02	0.0	9.706899e-01	5.120737e-02	0.0	9.713951e-01	4.719690e-02	0.0	9.720503e-01	4.326759e-02	0.0	9.726703e-01	3.939470e-02	0.0	9.732396e-01	3.555932e-02	0.0	9.737712e-01	3.174815e-02	0.0	9.742550e-01	2.793912e-02	0.0	9.747082e-01	2.410141e-02	0.0	9.751514e-01	2.021143e-02	0.0	9.756454e-01	1.627267e-02	0.0	9.761734e-01	1.229303e-02	0.0	9.767386e-01	8.272916e-03	0.0	9.773004e-01	4.191031e-03	0.0	9.778211e-01	2.768180e-05	0.0	9.782720e-01	-4.240259e-03	0.0	9.786309e-01	-8.638615e-03	0.0	9.789356e-01	-1.317812e-02	0.0	9.791513e-01	-1.786339e-02	0.0	9.793298e-01	-2.267169e-02	0.0	9.794422e-01	-2.758700e-02	0.0	9.794915e-01	-3.262378e-02	0.0	9.794327e-01	-3.775274e-02	0.0	9.792426e-01	-4.297346e-02	0.0	9.788659e-01	-4.824995e-02	0.0	9.782923e-01	-5.359834e-02	0.0	9.775593e-01	-5.901980e-02	0.0	9.766085e-01	-6.448456e-02	0.0	9.754363e-01	-6.993489e-02	0.0	9.739847e-01	-7.533222e-02	0.0	9.722523e-01	-8.063959e-02	0.0	9.702159e-01	-8.584399e-02	0.0	9.678789e-01	-9.088595e-02	0.0	9.652255e-01	-9.573617e-02	0.0	9.622501e-01	-1.003252e-01	0.0	9.589473e-01	-1.046294e-01	0.0	9.553154e-01	-1.085782e-01	0.0	9.513945e-01	-1.121367e-01	0.0	9.471185e-01	-1.152496e-01	0.0	9.425985e-01	-1.178728e-01	0.0	9.378413e-01	-1.199652e-01	0.0	9.328652e-01	-1.214926e-01	0.0	9.277862e-01	-1.224559e-01	0.0	9.226597e-01	-1.228804e-01	0.0	9.175405e-01	-1.228388e-01	0.0	9.124550e-01	-1.224772e-01	0.0	9.073476e-01	-1.219708e-01	0.0	9.020948e-01	-1.214982e-01	0.0	8.964032e-01	-1.211318e-01	0.0	8.899750e-01	-1.207074e-01	0.0	8.824728e-01	-1.196914e-01	0.0	8.738891e-01	-1.171848e-01	0.0	8.646505e-01	-1.120664e-01	0.0	8.558438e-01	-1.034481e-01	0.0	8.490148e-01	-9.113916e-02	0.0	8.457357e-01	-7.606394e-02	0.0	8.470210e-01	-6.039247e-02	0.0	8.527762e-01	-4.722245e-02	0.0	8.615375e-01	-3.981225e-02	0.0	8.706290e-01	-4.037666e-02	0.0	8.767294e-01	-4.901359e-02	0.0	8.771831e-01	-6.347941e-02	0.0	8.706778e-01	-7.994923e-02	0.0	8.579511e-01	-9.467596e-02	0.0	8.397436e-01	-1.049262e-01	0.0	8.176126e-01	-1.097769e-01	0.0	7.912780e-01	-1.102805e-01	0.0	7.597078e-01	-1.062019e-01	0.0	7.213564e-01	-1.003427e-01	0.0	6.623525e-01	2.581080e-03	0.0	
SCALARS Energy double 1
LOOKUP_TABLE default
3.446431e+00	3.400860e+00	3.375622e+00	3.360160e+00	3.349068e+00	3.338245e+00	3.321179e+00	3.293995e+00	3.253593e+00	3.200196e+00	3.136822e+00	3.069863e+00	3.010351e+00	2.968553e+00	2.947395e+00	2.942164e+00	2.944894e+00	2.948443e+00	2.948402e+00	2.943247e+00	2.933542e+00	2.920692e+00	2.906171e+00	2.891178e+00	2.876414e+00	2.862164e+00	2.848404e+00	2.835021e+00	2.821843e+00	2.808793e+00	2.795838e+00	2.782856e+00	2.769760e+00	2.756593e+00	2.743490e+00	2.730577e+00	2.717906e+00	2.705486e+00	2.693348e+00	2.681543e+00	2.670063e+00	2.658946e+00	2.648138e+00	2.637695e+00	2.627647e+00	2.618142e+00	2.609143e+00	2.600492e+00	2.591789e+00	2.583022e+00	2.574708e+00	2.567793e+00	2.562582e+00	2.558342e+00	2.553319e+00	2.545531e+00	2.533586e+00	2.517765e+00	2.500281e+00	2.484496e+00	2.472878e+00	2.466026e+00	2.463268e+00	2.463433e+00	2.465693e+00	2.469485e+00	2.474684e+00	2.481044e+00	2.488349e+00	2.496287e+00	2.504929e+00	2.514703e+00	2.526272e+00	2.539793e+00	2.555064e+00	2.571664e+00	2.589797e+00	2.609929e+00	2.632163e+00	2.656589e+00	2.683515e+00	2.713058e+00	2.745604e+00	2.781421e+00	2.820964e+00	2.864895e+00	2.913731e+00	2.968354e+00	3.029920e+00	3.099077e+00	3.177082e+00	3.264965e+00	3.362058e+00	3.467137e+00	3.575860e+00	3.681337e+00	3.762467e+00	3.809680e+00	3.781458e+00	3.703569e+00	3.650789e+00	3.501945e+00	3.194365e+00	2.947081e+00	2.751826e+00	2.607248e+00	2.508068e+00	2.442491e+00	2.398037e+00	2.367720e+00	2.347226e+00	2.333464e+00	2.325068e+00	2.320082e+00	2.317513e+00	2.317382e+00	2.319312e+00	2.322669e+00	2.326616e+00	2.330258e+00	2.333633e+00	2.337610e+00	2.342872e+00	2.349003e+00	2.354955e+00	2.360107e+00	2.364705e+00	2.369129e+00	2.373667e+00	2.378504e+00	2.383800e+00	2.389504e+00	2.395429e+00	2.401302e+00	2.407023e+00	2.412531e+00	2.417811e+00	2.422752e+00	2.427379e+00	2.432042e+00	2.437464e+00	2.444282e+00	2.452817e+00	2.462891e+00	2.474034e+00	2.485603e+00	2.496944e+00	2.507816e+00	2.518369e+00	2.529158e+00	2.540566e+00	2.552985e+00	2.566749e+00	2.582100e+00	2.598714e+00	2.615935e+00	2.633372e+00	2.651191e+00	2.669897e+00	2.689580e+00	2.710074e+00	2.731142e+00	2.752670e+00	2.774627e+00	2.796931e+00	2.819546e+00	2.842335e+00	2.865266e+00	2.888123e+00	2.910942e+00	2.933501e+00	2.955587e+00	2.977060e+00	2.997706e+00	3.017409e+00	3.036120e+00	3.053953e+00	3.071368e+00	3.089002e+00	3.107844e+00	3.128621e+00	3.151588e+00	3.175790e+00	3.199105e+00	3.218450e+00	3.230517e+00	3.232562e+00	3.223608e+00	3.205472e+00	3.183530e+00	3.165471e+00	3.158798e+00	3.168221e+00	3.193617e+00	3.229844e+00	3.272458e+00	3.317980e+00	3.367435e+00	3.426984e+00	3.383868e+00	
SCALARS Pressure double 1
LOOKUP_TABLE default
1.290571e+00	1.264251e+00	1.248414e+00	1.238545e+00	1.231675e+00	1.224949e+00	1.214883e+00	1.198969e+00	1.175439e+00	1.144418e+00	1.107779e+00	1.069448e+00	1.035658e+00	1.011957e+00	9.999154e-01	9.969538e-01	9.985785e-01	1.000712e+00	1.000836e+00	9.981032e-01	9.928205e-01	9.857909e-01	9.778572e-01	9.696890e-01	9.616816e-01	9.539870e-01	9.465920e-01	9.394233e-01	9.323956e-01	9.254607e-01	9.185891e-01	9.117276e-01	9.048289e-01	8.979152e-01	8.910574e-01	8.843221e-01	8.777300e-01	8.712932e-01	8.650245e-01	8.589418e-01	8.530514e-01	8.473571e-01	8.418447e-01	8.365259e-01	8.314323e-01	8.266196e-01	8.220815e-01	8.177158e-01	8.133386e-01	8.089253e-01	8.047639e-01	8.013171e-01	7.987485e-01	7.966639e-01	7.941749e-01	7.902665e-01	7.842649e-01	7.763388e-01	7.676625e-01	7.599050e-01	7.542476e-01	7.509547e-01	7.496494e-01	7.497686e-01	7.508868e-01	7.527598e-01	7.553067e-01	7.584343e-01	7.620181e-01	7.659280e-01	7.701846e-01	7.750217e-01	7.807596e-01	7.875002e-01	7.951287e-01	8.034825e-01	8.126254e-01	8.228051e-01	8.341453e-01	8.467121e-01	8.606398e-01	8.760473e-01	8.931497e-01	9.121480e-01	9.333429e-01	9.571738e-01	9.840291e-01	1.014448e+00	1.049198e+00	1.088874e+00	1.134304e+00	1.186282e+00	1.244826e+00	1.309280e+00	1.377183e+00	1.443435e+00	1.495249e+00	1.523634e+00	1.507413e+00	1.462644e+00	1.421383e+00	1.322383e+00	1.151926e+00	1.015175e+00	9.099006e-01	8.332641e-01	7.810659e-01	7.466868e-01	7.236386e-01	7.080749e-01	6.976002e-01	6.906647e-01	6.864071e-01	6.838486e-01	6.824904e-01	6.822873e-01	6.831019e-01	6.846264e-01	6.864195e-01	6.880666e-01	6.895710e-01	6.913407e-01	6.937346e-01	6.965950e-01	6.993852e-01	7.017967e-01	7.039312e-01	7.059883e-01	7.080966e-01	7.103575e-01	7.128381e-01	7.155251e-01	7.183206e-01	7.211025e-01	7.238120e-01	7.264275e-01	7.289348e-01	7.312823e-01	7.334757e-01	7.356833e-01	7.382447e-01	7.414925e-01	7.455869e-01	7.504548e-01	7.558707e-01	7.615187e-01	7.670762e-01	7.724019e-01	7.775888e-01	7.828910e-01	7.885134e-01	7.946490e-01	8.014825e-01	8.091393e-01	8.174783e-01	8.261704e-01	8.350002e-01	8.440752e-01	8.536427e-01	8.637682e-01	8.743657e-01	8.853243e-01	8.965833e-01	9.081324e-01	9.199323e-01	9.319642e-01	9.441640e-01	9.564976e-01	9.688899e-01	9.813136e-01	9.936632e-01	1.005834e+00	1.017718e+00	1.029196e+00	1.040199e+00	1.050690e+00	1.060740e+00	1.070599e+00	1.080657e+00	1.091466e+00	1.103479e+00	1.116823e+00	1.130943e+00	1.144546e+00	1.155762e+00	1.162607e+00	1.163505e+00	1.157988e+00	1.147254e+00	1.134506e+00	1.124261e+00	1.120809e+00	1.126745e+00	1.141751e+00	1.163212e+00	1.188526e+00	1.216034e+00	1.246267e+00	1.281849e+00	1.279259e+00	
SCALARS Temperature double 1
LOOKUP_TABLE default
1.075617e+00	1.069919e+00	1.065901e+00	1.063300e+00	1.061548e+00	1.059811e+00	1.057389e+00	1.053549e+00	1.047782e+00	1.039951e+00	1.030376e+00	1.020026e+00	1.010576e+00	1.003698e+00	1.000095e+00	9.992073e-01	9.997304e-01	1.000425e+00	1.000528e+00	9.997927e-01	9.982973e-01	9.962732e-01	9.939683e-01	9.915786e-01	9.892249e-01	9.869530e-01	9.847615e-01	9.826250e-01	9.805231e-01	9.784388e-01	9.763577e-01	9.742696e-01	9.721589e-01	9.700315e-01	9.679097e-01	9.658148e-01	9.637507e-01	9.617269e-01	9.597465e-01	9.578127e-01	9.559343e-01	9.541057e-01	9.523316e-01	9.506080e-01	9.489556e-01	9.473840e-01	9.459001e-01	9.444597e-01	9.430127e-01	9.415402e-01	9.401544e-01	9.390069e-01	9.381629e-01	9.374786e-01	9.366469e-01	9.353053e-01	9.332230e-01	9.304510e-01	9.274174e-01	9.247073e-01	9.227364e-01	9.216049e-01	9.211666e-01	9.212317e-01	9.216366e-01	9.223111e-01	9.232124e-01	9.243200e-01	9.255766e-01	9.269469e-01	9.284275e-01	9.301091e-01	9.320913e-01	9.344134e-01	9.370164e-01	9.398604e-01	9.429349e-01	9.463164e-01	9.500666e-01	9.541966e-01	9.587122e-01	9.636536e-01	9.690611e-01	9.749866e-01	9.815016e-01	9.887166e-01	9.967181e-01	1.005589e+00	1.015478e+00	1.026492e+00	1.038705e+00	1.052170e+00	1.066795e+00	1.082206e+00	1.097739e+00	1.111993e+00	1.122784e+00	1.127880e+00	1.125249e+00	1.117753e+00	1.106360e+00	1.082181e+00	1.046370e+00	1.011528e+00	9.810419e-01	9.561787e-01	9.375309e-01	9.243560e-01	9.151948e-01	9.088691e-01	9.045314e-01	9.016678e-01	8.998747e-01	8.987720e-01	8.981612e-01	8.979939e-01	8.982442e-01	8.987877e-01	8.994249e-01	9.000033e-01	9.005153e-01	9.011134e-01	9.019538e-01	9.029989e-01	9.040211e-01	9.048973e-01	9.056583e-01	9.063905e-01	9.071366e-01	9.079418e-01	9.088242e-01	9.097847e-01	9.107814e-01	9.117743e-01	9.127360e-01	9.136635e-01	9.145480e-01	9.153732e-01	9.161376e-01	9.169020e-01	9.177812e-01	9.189063e-01	9.203321e-01	9.220333e-01	9.239262e-01	9.258945e-01	9.278232e-01	9.296515e-01	9.314250e-01	9.332201e-01	9.351139e-01	9.371668e-01	9.394455e-01	9.419859e-01	9.447424e-01	9.475999e-01	9.504744e-01	9.534116e-01	9.564813e-01	9.597078e-01	9.630556e-01	9.664902e-01	9.699877e-01	9.735435e-01	9.771444e-01	9.807824e-01	9.844397e-01	9.880969e-01	9.917516e-01	9.953735e-01	9.989407e-01	1.002432e+00	1.005806e+00	1.009036e+00	1.012105e+00	1.015008e+00	1.017773e+00	1.020469e+00	1.023215e+00	1.026152e+00	1.029408e+00	1.032994e+00	1.036746e+00	1.040298e+00	1.043153e+00	1.044814e+00	1.044921e+00	1.043401e+00	1.040586e+00	1.037289e+00	1.034705e+00	1.033968e+00	1.035727e+00	1.039741e+00	1.045374e+00	1.051859e+00	1.058870e+00	1.066452e+00	1.074739e+00	1.083081e+00	
SCALARS Mach double 1
LOOKUP_TABLE default
4.934865e-01	5.210135e-01	5.397474e-01	5.516072e-01	5.594849e-01	5.672133e-01	5.778596e-01	5.944448e-01	6.187315e-01	6.506624e-01	6.883004e-01	7.275311e-01	7.622373e-01	7.869267e-01	7.996827e-01	8.028108e-01	8.009694e-01	7.985217e-01	7.981573e-01	8.007498e-01	8.060092e-01	8.130984e-01	8.211310e-01	8.294161e-01	8.375349e-01	8.453338e-01	8.528228e-01	8.600924e-01	8.672157e-01	8.742521e-01	8.812508e-01	8.882475e-01	8.952947e-01	9.023723e-01	9.094075e-01	9.163302e-01	9.231295e-01	9.297757e-01	9.362606e-01	9.425756e-01	9.486936e-01	9.546345e-01	9.603851e-01	9.659593e-01	9.712921e-01	9.763544e-01	9.811254e-01	9.857489e-01	9.903861e-01	9.950969e-01	9.995235e-01	1.003184e+00	1.005874e+00	1.008053e+00	1.010699e+00	1.014963e+00	1.021570e+00	1.030345e+00	1.039922e+00	1.048456e+00	1.054651e+00	1.058202e+00	1.059577e+00	1.059373e+00	1.058103e+00	1.055986e+00	1.053156e+00	1.049674e+00	1.045721e+00	1.041405e+00	1.036736e+00	1.031425e+00	1.025155e+00	1.017794e+00	1.009523e+00	1.000462e+00	9.906350e-01	9.797880e-01	9.677079e-01	9.543396e-01	9.396403e-01	9.234487e-01	9.055929e-01	8.858480e-01	8.639033e-01	8.392829e-01	8.115427e-01	7.801808e-01	7.443537e-01	7.031878e-01	6.556433e-01	6.003175e-01	5.356231e-01	4.600079e-01	3.712991e-01	2.683299e-01	1.525045e-01	2.360663e-02	1.106813e-01	2.141628e-01	3.127681e-01	4.601376e-01	6.245735e-01	7.587846e-01	8.654602e-01	9.478983e-01	1.007886e+00	1.049561e+00	1.078265e+00	1.097975e+00	1.111444e+00	1.120317e+00	1.125866e+00	1.129275e+00	1.131163e+00	1.131680e+00	1.130907e+00	1.129227e+00	1.127257e+00	1.125468e+00	1.123884e+00	1.122033e+00	1.119431e+00	1.116194e+00	1.113026e+00	1.110309e+00	1.107948e+00	1.105675e+00	1.103358e+00	1.100857e+00	1.098114e+00	1.095127e+00	1.092025e+00	1.088933e+00	1.085936e+00	1.083045e+00	1.080285e+00	1.077708e+00	1.075320e+00	1.072931e+00	1.070182e+00	1.066661e+00	1.062194e+00	1.056858e+00	1.050912e+00	1.044720e+00	1.038642e+00	1.032871e+00	1.027264e+00	1.021579e+00	1.015571e+00	1.009045e+00	1.001785e+00	9.936718e-01	9.848420e-01	9.756596e-01	9.663909e-01	9.568860e-01	9.469136e-01	9.363873e-01	9.254143e-01	9.141007e-01	9.025179e-01	8.906746e-01	8.786081e-01	8.663386e-01	8.539197e-01	8.414115e-01	8.288178e-01	8.162390e-01	8.037487e-01	7.914222e-01	7.794065e-01	7.678041e-01	7.566855e-01	7.460798e-01	7.358937e-01	7.258803e-01	7.155903e-01	7.044784e-01	6.920309e-01	6.781516e-01	6.634214e-01	6.492708e-01	6.377419e-01	6.309670e-01	6.305285e-01	6.367330e-01	6.481157e-01	6.612702e-01	6.714601e-01	6.743456e-01	6.674426e-01	6.515051e-01	6.286714e-01	6.016353e-01	5.713706e-01	5.372106e-01	4.978082e-01	4.554076e-01	
SCALARS Pressure_Coefficient double 1
LOOKUP_TABLE default