# vtk DataFile Version 3.0
vtk output
ASCII
DATASET UNSTRUCTURED_GRID
POINTS 5233 double
9.997500e-01	-3.632897e-05	0.0	9.990000e-01	-1.452538e-04	0.0	9.977600e-01	-3.251112e-04	0.0	9.960200e-01	-5.769984e-04	0.0	9.937800e-01	-9.004365e-04	0.0	9.910500e-01	-1.293364e-03	0.0	9.878400e-01	-1.753610e-03	0.0	9.841300e-01	-2.283177e-03	0.0	9.799500e-01	-2.876826e-03	0.0	9.752800e-01	-3.536324e-03	0.0	9.701500e-01	-4.256269e-03	0.0	9.645400e-01	-5.038225e-03	0.0	9.584700e-01	-5.878077e-03	0.0	9.519400e-01	-6.774429e-03	0.0	9.449600e-01	-7.724467e-03	0.0	9.375400e-01	-8.725349e-03	0.0	9.296900e-01	-9.774221e-03	0.0	9.214000e-01	-1.087086e-02	0.0	9.127000e-01	-1.200973e-02	0.0	9.035800e-01	-1.319056e-02	0.0	8.940600e-01	-1.440916e-02	0.0	8.841500e-01	-1.566269e-02	0.0	8.738500e-01	-1.694956e-02	0.0	8.631800e-01	-1.826569e-02	0.0	8.521600e-01	-1.960709e-02	0.0	8.407700e-01	-2.097463e-02	0.0	8.290500e-01	-2.236196e-02	0.0	8.170100e-01	-2.376642e-02	0.0	8.046400e-01	-2.518764e-02	0.0	7.919700e-01	-2.662063e-02	0.0	7.790100e-01	-2.806277e-02	0.0	7.657800e-01	-2.951034e-02	0.0	7.522800e-01	-3.096181e-02	0.0	7.385200e-01	-3.241453e-02	0.0	7.245300e-01	-3.386377e-02	0.0	7.103200e-01	-3.530689e-02	0.0	6.958900e-01	-3.674225e-02	0.0	6.812700e-01	-3.816515e-02	0.0	6.664700e-01	-3.957289e-02	0.0	6.515000e-01	-4.096270e-02	0.0	6.363800e-01	-4.233084e-02	0.0	6.211300e-01	-4.367359e-02	0.0	6.057600e-01	-4.498807e-02	0.0	5.902800e-01	-4.627133e-02	0.0	5.747100e-01	-4.751951e-02	0.0	5.590600e-01	-4.872956e-02	0.0	5.433600e-01	-4.989684e-02	0.0	5.276100e-01	-5.101898e-02	0.0	5.118400e-01	-5.209138e-02	0.0	4.960500e-01	-5.311154e-02	0.0	4.802700e-01	-5.407492e-02	0.0	4.645100e-01	-5.497836e-02	0.0	4.487800e-01	-5.581860e-02	0.0	4.331100e-01	-5.659142e-02	0.0	4.175000e-01	-5.729417e-02	0.0	4.019700e-01	-5.792324e-02	0.0	3.865400e-01	-5.847521e-02	0.0	3.712300e-01	-5.894684e-02	0.0	3.560400e-01	-5.933562e-02	0.0	3.409900e-01	-5.963848e-02	0.0	3.261100e-01	-5.985254e-02	0.0	3.114000e-01	-5.997565e-02	0.0	2.968700e-01	-6.000550e-02	0.0	2.825500e-01	-5.994005e-02	0.0	2.684500e-01	-5.977766e-02	0.0	2.545700e-01	-5.951658e-02	0.0	2.409400e-01	-5.915586e-02	0.0	2.275700e-01	-5.869457e-02	0.0	2.144700e-01	-5.813197e-02	0.0	2.016600e-01	-5.746811e-02	0.0	1.891400e-01	-5.670228e-02	0.0	1.769300e-01	-5.583514e-02	0.0	1.650400e-01	-5.486709e-02	0.0	1.534900e-01	-5.379978e-02	0.0	1.422900e-01	-5.263443e-02	0.0	1.314400e-01	-5.137134e-02	0.0	1.209500e-01	-5.001187e-02	0.0	1.108500e-01	-4.856067e-02	0.0	1.011300e-01	-4.701715e-02	0.0	9.181000e-02	-4.538527e-02	0.0	8.290000e-02	-4.366791e-02	0.0	7.440000e-02	-4.186608e-02	0.0	6.633000e-02	-3.998514e-02	0.0	5.869000e-02	-3.802636e-02	0.0	5.149000e-02	-3.599338e-02	0.0	4.474000e-02	-3.389028e-02	0.0	3.844000e-02	-3.171811e-02	0.0	3.260000e-02	-2.948109e-02	0.0	2.723000e-02	-2.718420e-02	0.0	2.232000e-02	-2.482329e-02	0.0	1.790000e-02	-2.241365e-02	0.0	1.395000e-02	-1.994492e-02	0.0	1.049000e-02	-1.742916e-02	0.0	7.520000e-03	-1.486756e-02	0.0	5.040000e-03	-1.226032e-02	0.0	3.050000e-03	-9.605565e-03	0.0	1.560000e-03	-6.917518e-03	0.0	5.600000e-04	-4.173160e-03	0.0	6.000000e-05	-1.375330e-03	0.0	0.000000e+00	0.000000e+00	0.0	6.000000e-05	1.375330e-03	0.0	5.600000e-04	4.173160e-03	0.0	1.560000e-03	6.917518e-03	0.0	3.050000e-03	9.605565e-03	0.0	5.040000e-03	1.226032e-02	0.0	7.520000e-03	1.486756e-02	0.0	1.049000e-02	1.742916e-02	0.0	1.395000e-02	1.994492e-02	0.0	1.790000e-02	2.241365e-02	0.0	2.232000e-02	2.482329e-02	0.0	2.723000e-02	2.718420e-02	0.0	3.260000e-02	2.948109e-02	0.0	3.844000e-02	3.171811e-02	0.0	4.474000e-02	3.389028e-02	0.0	5.149000e-02	3.599338e-02	0.0	5.869000e-02	3.802636e-02	0.0	6.633000e-02	3.998514e-02	0.0	7.440000e-02	4.186608e-02	0.0	8.290000e-02	4.366791e-02	0.0	9.181000e-02	4.538527e-02	0.0	1.011300e-01	4.701715e-02	0.0	1.108500e-01	4.856067e-02	0.0	1.209500e-01	5.001187e-02	0.0	1.314400e-01	5.137134e-02	0.0	1.422900e-01	5.263443e-02	0.0	1.534900e-01	5.379978e-02	0.0	1.650400e-01	5.486709e-02	0.0	1.769300e-01	5.583514e-02	0.0	1.891400e-01	5.670228e-02	0.0	2.016600e-01	5.746811e-02	0.0	2.144700e-01	5.813197e-02	0.0	2.275700e-01	5.869457e-02	0.0	2.409400e-01	5.915586e-02	0.0	2.545700e-01	5.951658e-02	0.0	2.684500e-01	5.977766e-02	0.0	2.825500e-01	5.994005e-02	0.0	2.968700e-01	6.000550e-02	0.0	3.114000e-01	5.997565e-02	0.0	3.261100e-01	5.985254e-02	0.0	3.409900e-01	5.963848e-02	0.0	3.560400e-01	5.933562e-02	0.0	3.712300e-01	5.894684e-02	0.0	3.865400e-01	5.847521e-02	0.0	4.019700e-01	5.792324e-02	0.0	4.175000e-01	5.729417e-02	0.0	4.331100e-01	5.659142e-02	0.0	4.487800e-01	5.581860e-02	0.0	4.645100e-01	5.497836e-02	0.0	4.802700e-01	5.407492e-02	0.0	4.960500e-01	5.311154e-02	0.0	5.118400e-01	5.209138e-02	0.0	5.276100e-01	5.101898e-02	0.0	5.433600e-01	4.989684e-02	0.0	5.590600e-01	4.872956e-02	0.0	5.747100e-01	4.751951e-02	0.0	5.902800e-01	4.627133e-02	0.0	6.057600e-01	4.498807e-02	0.0	6.211300e-01	4.367359e-02	0.0	6.363800e-01	4.233084e-02	0.0	6.515000e-01	4.096270e-02	0.0	6.664700e-01	3.957289e-02	0.0	6.812700e-01	3.816515e-02	0.0	6.958900e-01	3.674225e-02	0.0	7.103200e-01	3.530689e-02	0.0	7.245300e-01	3.386377e-02	0.0	7.385200e-01	3.241453e-02	0.0	7.522800e-01	3.096181e-02	0.0	7.657800e-01	2.951034e-02	0.0	7.790100e-01	2.806277e-02	0.0	7.919700e-01	2.662063e-02	0.0	8.046400e-01	2.518764e-02	0.0	8.170100e-01	2.376642e-02	0.0	8.290500e-01	2.236196e-02	0.0	8.407700e-01	2.097463e-02	0.0	8.521600e-01	1.960709e-02	0.0	8.631800e-01	1.826569e-02	0.0	8.738500e-01	1.694956e-02	0.0	8.841500e-01	1.566269e-02	0.0	8.940600e-01	1.440916e-02	0.0	9.035800e-01	1.319056e-02	0.0	9.127000e-01	1.200973e-02	0.0	9.214000e-01	1.087086e-02	0.0	9.296900e-01	9.774221e-03	0.0	9.375400e-01	8.725349e-03	0.0	9.449600e-01	7.724467e-03	0.0	9.519400e-01	6.774429e-03	0.0	9.584700e-01	5.878077e-03	0.0	9.645400e-01	5.038225e-03	0.0	9.701500e-01	4.256269e-03	0.0	9.752800e-01	3.536324e-03	0.0	9.799500e-01	2.876826e-03	0.0	9.841300e-01	2.283177e-03	0.0	9.878400e-01	1.753610e-03	0.0	9.910500e-01	1.293364e-03	0.0	9.937800e-01	9.004365e-04	0.0	9.960200e-01	5.769984e-04	0.0	9.977600e-01	3.251112e-04	0.0	9.990000e-01	1.452538e-04	0.0	9.997500e-01	3.632897e-05	0.0	1.000000e+00	0.000000e+00	0.0	1.984229e+01	2.506660e+00	0.0	1.937166e+01	4.973800e+00	0.0	1.859553e+01	7.362490e+00	0.0	1.752613e+01	9.635070e+00	0.0	1.618034e+01	1.175571e+01	0.0	1.457937e+01	1.369094e+01	0.0	1.274848e+01	1.541027e+01	0.0	1.071654e+01	1.688656e+01	0.0	8.515590e+00	1.809654e+01	0.0	6.180340e+00	1.902113e+01	0.0	3.747630e+00	1.964575e+01	0.0	1.255810e+00	1.996053e+01	0.0	-1.255810e+00	1.996053e+01	0.0	-3.747630e+00	1.964574e+01	0.0	-6.180340e+00	1.902113e+01	0.0	-8.515590e+00	1.809654e+01	0.0	-1.071654e+01	1.688656e+01	0.0	-1.274848e+01	1.541026e+01	0.0	-1.457937e+01	1.369094e+01	0.0	-1.618034e+01	1.175570e+01	0.0	-1.752613e+01	9.635070e+00	0.0	-1.859553e+01	7.362490e+00	0.0	-1.937166e+01	4.973800e+00	0.0	-1.984229e+01	2.506660e+00	0.0	-2.000000e+01	0.000000e+00	0.0	-1.984229e+01	-2.506670e+00	0.0	-1.937166e+01	-4.973800e+00	0.0	-1.859553e+01	-7.362490e+00	0.0	-1.752613e+01	-9.635080e+00	0.0	-1.618034e+01	-1.175571e+01	0.0	-1.457937e+01	-1.369094e+01	0.0	-1.274848e+01	-1.541027e+01	0.0	-1.071653e+01	-1.688656e+01	0.0	-8.515580e+00	-1.809654e+01	0.0	-6.180340e+00	-1.902113e+01	0.0	-3.747620e+00	-1.964575e+01	0.0	-1.255810e+00	-1.996053e+01	0.0	1.255810e+00	-1.996053e+01	0.0	3.747630e+00	-1.964574e+01	0.0	6.180340e+00	-1.902113e+01	0.0	8.515590e+00	-1.809654e+01	0.0	1.071654e+01	-1.688656e+01	0.0	1.274848e+01	-1.541026e+01	0.0	1.457937e+01	-1.369094e+01	0.0	1.618034e+01	-1.175570e+01	0.0	1.752614e+01	-9.635070e+00	0.0	1.859553e+01	-7.362490e+00	0.0	1.937166e+01	-4.973790e+00	0.0	1.984229e+01	-2.506660e+00	0.0	2.000000e+01	0.000000e+00	0.0	6.071847e-02	-4.599300e-02	0.0	6.602584e-01	-5.397924e-02	0.0	4.259462e-01	7.123173e-02	0.0	6.898893e-01	5.084802e-02	0.0	3.793152e-01	-7.273116e-02	0.0	9.994604e-01	-7.202256e-04	0.0	9.985440e-01	-1.312423e-03	0.0	7.737237e-01	-4.090969e-02	0.0	6.898893e-01	-5.084802e-02	0.0	-1.456769e-03	6.464601e-03	0.0	7.467285e-01	-4.428984e-02	0.0	5.836398e-01	6.115854e-02	0.0	9.927702e-01	-3.577733e-03	0.0	9.898650e-01	-4.450375e-03	0.0	5.991925e-01	5.980916e-02	0.0	7.187526e-01	-4.760665e-02	0.0	-1.597618e-03	7.671995e-04	0.0	9.864674e-01	-5.394793e-03	0.0	9.825871e-01	-6.398977e-03	0.0	-1.456774e-03	-6.464600e-03	0.0	6.451948e-01	-5.549610e-02	0.0	8.243215e-01	-3.409983e-02	0.0	7.996157e-01	-3.751255e-02	0.0	3.487901e-01	7.326090e-02	0.0	8.477112e-01	-3.071909e-02	0.0	2.474256e-01	7.182160e-02	0.0	8.697233e-01	-2.738134e-02	0.0	9.916188e-03	2.185203e-02	0.0	8.902508e-01	-2.411717e-02	0.0	7.700293e-02	-5.054436e-02	0.0	9.092206e-01	-2.095307e-02	0.0	-1.944578e-03	-3.190372e-03	0.0	9.421664e-01	-1.502079e-02	0.0	9.265514e-01	-1.791177e-02	0.0	1.789678e-02	-2.766280e-02	0.0	4.259462e-01	-7.123173e-02	0.0	8.588986e-01	-2.904064e-02	0.0	9.560213e-01	-1.230722e-02	0.0	9.782180e-01	-7.479396e-03	0.0	9.680592e-01	-9.783205e-03	0.0	1.582863e-01	-6.490557e-02	0.0	8.999374e-01	-2.252139e-02	0.0	7.603588e-01	-4.260503e-02	0.0	9.971186e-01	-2.046344e-03	0.0	5.991925e-01	-5.980916e-02	0.0	4.416505e-01	-7.055456e-02	0.0	5.365104e-01	-6.487405e-02	0.0	4.732224e-01	-6.895566e-02	0.0	5.048788e-01	-6.705339e-02	0.0	4.890394e-01	-6.804024e-02	0.0	1.249513e-01	-6.028257e-02	0.0	2.780447e-02	-3.325805e-02	0.0	3.947663e-01	-7.232395e-02	0.0	4.619013e-02	-4.112619e-02	0.0	4.103114e-01	-7.182380e-02	0.0	3.188732e-01	-7.337957e-02	0.0	3.487901e-01	-7.326089e-02	0.0	3.347228e-02	-3.593942e-02	0.0	2.896464e-01	-7.308006e-02	0.0	9.345773e-01	-1.644433e-02	0.0	1.468197e-01	-6.346812e-02	0.0	1.946953e-01	-6.854614e-02	0.0	8.578013e-02	-5.268667e-02	0.0	1.045788e-01	-5.669131e-02	0.0	5.679929e-01	-6.245642e-02	0.0	1.700976e-01	-6.623429e-02	0.0	6.146535e-01	-5.841132e-02	0.0	8.801811e-01	-2.573953e-02	0.0	2.262334e-02	-3.049739e-02	0.0	9.951933e-01	-2.788490e-03	0.0	6.656769e-03	-1.887280e-02	0.0	1.789679e-02	2.766280e-02	0.0	9.180944e-01	-1.941524e-02	0.0	9.4932
[...]
POINT_DATA 5233

SCALARS Density double 1
LOOKUP_TABLE default
1.186904e+00	1.162738e+00	1.147865e+00	1.135663e+00	1.125261e+00	1.116258e+00	1.108016e+00	1.100490e+00	1.093470e+00	1.086874e+00	1.080619e+00	1.074648e+00	1.068921e+00	1.063400e+00	1.058065e+00	1.052895e+00	1.047869e+00	1.042969e+00	1.038186e+00	1.033504e+00	1.028920e+00	1.024426e+00	1.020000e+00	1.015651e+00	1.011354e+00	1.007107e+00	1.002896e+00	9.987226e-01	9.945774e-01	9.904597e-01	9.863673e-01	9.822864e-01	9.781847e-01	9.740621e-01	9.699207e-01	9.657535e-01	9.615689e-01	9.573358e-01	9.530605e-01	9.487239e-01	9.443231e-01	9.398454e-01	9.352851e-01	9.306337e-01	9.258913e-01	9.210530e-01	9.161243e-01	9.111254e-01	9.060926e-01	9.010325e-01	8.958122e-01	8.901399e-01	8.839743e-01	8.782915e-01	8.748997e-01	8.746160e-01	8.746709e-01	8.678758e-01	8.473378e-01	8.167258e-01	7.923371e-01	7.824219e-01	7.823481e-01	7.856227e-01	7.891994e-01	7.925514e-01	7.961027e-01	8.000896e-01	8.044891e-01	8.091789e-01	8.141862e-01	8.196999e-01	8.259373e-01	8.328973e-01	8.404233e-01	8.483438e-01	8.567242e-01	8.657495e-01	8.754541e-01	8.858543e-01	8.970419e-01	9.090507e-01	9.220050e-01	9.359941e-01	9.511789e-01	9.677994e-01	9.860438e-01	1.006233e+00	1.028804e+00	1.054047e+00	1.082504e+00	1.114711e+00	1.150757e+00	1.190647e+00	1.233329e+00	1.276835e+00	1.314445e+00	1.345299e+00	1.351020e+00	1.340960e+00	1.334249e+00	1.303448e+00	1.239152e+00	1.179910e+00	1.121337e+00	1.067590e+00	1.020852e+00	9.810489e-01	9.470267e-01	9.180392e-01	8.930929e-01	8.712047e-01	8.519514e-01	8.347862e-01	8.193860e-01	8.055589e-01	7.929300e-01	7.811348e-01	7.700261e-01	7.595312e-01	7.497543e-01	7.408038e-01	7.325597e-01	7.246339e-01	7.167710e-01	7.090732e-01	7.019382e-01	6.953744e-01	6.891300e-01	6.829507e-01	6.769489e-01	6.713337e-01	6.662856e-01	6.617529e-01	6.576492e-01	6.538253e-01	6.501844e-01	6.466879e-01	6.432415e-01	6.398614e-01	6.365877e-01	6.335653e-01	6.308655e-01	6.283559e-01	6.258526e-01	6.233294e-01	6.208534e-01	6.185997e-01	6.165518e-01	6.149223e-01	6.134112e-01	6.120775e-01	6.113874e-01	6.121815e-01	6.132419e-01	6.106066e-01	6.054512e-01	6.866849e-01	8.884533e-01	9.966294e-01	9.948732e-01	9.849845e-01	9.850831e-01	9.866193e-01	9.871139e-01	9.879975e-01	9.895126e-01	9.914300e-01	9.935747e-01	9.959808e-01	9.985999e-01	1.001400e+00	1.004379e+00	1.007526e+00	1.010815e+00	1.014259e+00	1.017830e+00	1.021549e+00	1.025392e+00	1.029379e+00	1.033496e+00	1.037756e+00	1.042163e+00	1.046722e+00	1.051444e+00	1.056343e+00	1.061436e+00	1.066739e+00	1.072284e+00	1.078100e+00	1.084243e+00	1.090783e+00	1.097792e+00	1.105465e+00	1.113798e+00	1.123486e+00	1.134605e+00	1.148600e+00	1.164518e+00	1.160053e+00	9.989988e-01	9.996897e-01	9.997379e-01	9.996048e-01	9.995060e-01	9.993833e-01	9.992380e-01	9.990574e-01	9.988618e-01	9.987275e-01	9.986572e-01	9.987356e-01	9.989265e-01	9.992849e-01	9.995854e-01	9.998317e-01	9.999732e-01	1.000064e+00	1.000125e+00	1.000154e+00	1.000173e+00	1.000182e+00	1.000190e+00	1.000199e+00	1.000207e+00	1.000218e+00	1.000237e+00	1.000261e+00	1.000294e+00	1.000344e+00	1.000401e+00	1.000494e+00	1.000586e+00	1.000742e+00	1.000888e+00	1.001072e+00	1.001267e+00	1.001350e+00	1.001378e+00	1.001278e+00	1.001163e+00	1.000993e+00	1.000833e+00	1.000676e+00	1.000534e+00	1.000366e+00	1.000234e+00	1.000234e+00	9.994992e-01	9.985276e-01	9.440141e-01	9.524581e-01	6.285201e-01	9.865509e-01	8.783208e-01	1.165992e+00	1.153907e+00	9.854899e-01	9.608971e-01	1.285429e+00	9.773753e-01	6.132441e-01	1.120275e+00	1.111847e+00	6.072534e-01	9.691818e-01	1.337542e+00	1.104110e+00	1.096970e+00	1.329633e+00	9.481601e-01	1.001818e+00	9.936030e-01	6.433131e-01	1.010158e+00	6.711068e-01	1.018681e+00	1.041072e+00	1.027445e+00	9.162733e-01	1.036537e+00	1.346537e+00	1.055977e+00	1.046020e+00	1.092276e+00	8.791361e-01	1.014394e+00	1.066542e+00	1.090255e+00	1.077883e+00	8.380861e-01	1.031946e+00	9.814433e-01	1.140525e+00	9.348290e-01	8.837125e-01	9.158723e-01	8.958322e-01	9.060890e-01	9.011421e-01	8.626100e-01	1.038846e+00	8.797437e-01	9.766897e-01	8.780465e-01	7.893564e-01	8.351713e-01	1.016020e+00	7.895757e-01	1.050933e+00	8.457904e-01	8.192679e-01	9.039226e-01	8.817165e-01	9.255280e-01	8.310646e-01	9.393539e-01	1.023032e+00	1.064155e+00	1.129762e+00	1.194232e+00	9.672289e-01	1.041223e+00	1.061173e+00	1.083915e+00	1.237762e+00	1.005971e+00	8.006458e-01	9.207436e-01	9.732812e-01	9.895377e-01	8.717983e-01	8.092210e-01	9.302257e-01	9.567037e-01	9.596518e-01	1.232410e+00	1.123375e+00	8.644424e-01	8.248453e-01	1.200031e+00	8.047055e-01	8.924297e-01	7.866645e-01	7.970169e-01	8.898681e-01	9.650490e-01	1.324020e+00	1.304439e+00	6.143477e-01	1.342962e+00	9.108885e-01	8.324114e-01	8.671201e-01	7.488784e-01	6.312038e-01	1.128198e+00	6.158024e-01	6.209648e-01	1.075926e+00	1.065054e+00	1.025224e+00	6.189908e-01	6.258654e-01	6.367854e-01	1.041408e+00	1.033044e+00	7.914176e-01	1.081781e+00	1.059965e+00	1.050353e+00	7.684515e-01	8.176172e-01	6.581379e-01	6.664433e-01	7.080369e-01	6.505528e-01	6.233332e-01	6.339348e-01	7.233183e-01	7.401389e-01	7.830752e-01	6.945721e-01	6.819640e-01	1.002420e+00	6.155408e-01	9.910933e-01	9.892788e-01	9.995305e-01	9.948177e-01	1.011187e+00	1.005033e+00	1.029070e+00	1.017935e+00	1.055068e+00	1.037156e+00	1.070371e+00	1.014498e+00	1.021518e+00	1.002190e+00	1.008041e+00	9.928345e-01	9.970675e-01	9.885723e-01	9.898584e-01	9.954940e-01	9.886315e-01	6.139774e-01	6.174519e-01	6.881389e-01	6.762904e-01	7.154010e-01	7.012023e-01	8.487878e-01	7.316808e-01	1.001692e+00	8.877155e-01	8.141004e-01	1.134335e+00	1.072100e+00	9.976945e-01	8.049402e-01	9.109775e-01	1.186610e+00	9.371443e-01	1.085349e+00	7.795566e-01	8.040395e-01	6.621487e-01	7.582306e-01	1.087981e+00	1.094578e+00	6.542931e-01	1.101739e+00	1.109516e+00	6.469198e-01	6.399055e-01	1.045803e+00	1.175870e+00	1.140301e+00	1.152274e+00	9.437910e-01	9.953973e-01	1.118264e+00	6.172024e-01	1.270440e+00	1.157555e+00	9.295942e-01	8.539881e-01	7.934229e-01	8.162624e-01	1.264569e+00	1.303258e+00	7.984738e-01	9.645541e-01	1.039639e+00	1.188368e+00	6.180259e-01	9.604371e-01	9.887958e-01	1.107248e+00	8.027997e-01	1.013350e+00	1.005044e+00	9.112839e-01	1.309883e+00	8.199186e-01	1.124869e+00	1.069612e+00	8.520413e-01	9.686427e-01	9.520825e-01	8.903441e-01	9.238284e-01	8.821655e-01	1.030578e+00	9.927883e-01	1.090809e+00	9.817182e-01	9.924825e-01	1.011675e+00	7.683373e-01	9.883167e-01	7.232819e-01	1.021654e+00	1.097718e+00	6.513880e-01	6.205502e-01	1.058549e+00	1.025214e+00	1.104611e+00	1.063403e+00	1.085034e+00	6.827614e-01	6.553528e-01	6.885344e-01	7.788977e-01	9.562916e-01	8.253508e-01	1.050875e+00	7.398536e-01	8.632145e-01	1.073720e+00	1.112285e+00	1.028921e+00	8.442679e-01	1.190363e+00	1.130345e+00	1.120724e+00	1.133661e+00	1.223184e+00	1.221772e+00	1.339028e+00	1.335217e+00	1.096067e+00	1.200689e+00	9.518085e-01	1.143075e+00	1.123224e+00	6.347882e-01	9.207365e-01	1.100089e+00	1.021836e+00	6.071191e-01	1.114865e+00	1.330973e+00	8.850908e-01	6.378284e-01	1.009176e+00	6.678851e-01	1.017563e+00	1.026163e+00	9.372934e-01	1.035060e+00	1.044328e+00	1.059053e+00	1.045488e+00	1.064249e+00	1.075181e+00	1.093368e+00	8.693235e-01	9.807937e-01	9.848029e-01	1.132559e+00	8.961108e-01	9.015121e-01	9.064659e-01	1.069768e+00	8.819359e-01	8.820351e-01	8.254806e-01	1.003117e+00	1.049114e+00	1.054018e+00	8.604545e-01	8.995917e-01	9.254412e-01	9.391175e-01	1.080962e+00	1.087012e+00	9.726859e-01	9.767670e-01	8.887786e-01	8.787168e-01	9.300867e-01	9.346374e-01	9.846326e-01	9.675807e-01	1.155631e+00	8.552054e-01	8.755854e-01	8.373582e-01	8.311236e-01	8.148771e-01	8.102803e-01	7.948181e-01	7.942400e-01	8.061819e-01	1.327670e+00	1.255162e+00	8.819935e-01	1.091177e+00	6.187691e-01	6.221991e-01	6.243888e-01	6.266266e-01	1.079246e+00	1.068464e+00	1.040784e+00	6.291729e-01	6.318819e-01	6.410202e-01	1.036699e+00	1.053866e+00	8.305749e-01	8.461597e-01	6.774559e-01	6.724743e-01	7.312762e-01	7.491217e-01	7.585528e-01	1.000572e+00	9.926930e-01	9.917114e-01	9.982764e-01	1.008668e+00	1.032736e+00	1.018180e+00	1.014873e+00	1.005802e+00	1.003094e+00	9.961555e-01	9.943416e-01	9.915811e-01	9.910070e-01	1.004136e+00	9.308410e-01	6.182405e-01	6.180604e-01	6.733360e-01	6.094944e-01	6.946571e-01	7.013397e-01	7.083706e-01	7.157635e-01	1.014584e+00	9.029682e-01	9.264894e-01	9.968356e-01	1.000930e+00	9.112340e-01	9.159745e-01	1.178951e+00	9.526047e-01	7.904247e-01	8.028943e-01	6.593484e-01	6.635130e-01	6.442692e-01	6.476981e-01	1.049358e+00	1.044997e+00	9.435045e-01	9.478325e-01	1.023291e+00	1.286071e+00	8.023427e-01	1.310593e+00	8.861781e-01	8.043939e-01	9.923628e-01	9.213242e-01	1.042779e+00	1.100270e+00	1.093992e+00	1.066685e+00	1.172450e+00	1.107398e+00	1.140827e+00	1.155478e+00	1.134126e+00	1.180737e+00	1.099439e+00	1.309269e+00	9.192344e-01	1.047426e+00	1.110034e+00	6.209155e-01	1.155370e+00	1.212198e+00	9.684982e-01	1.268256e+00	9.724772e-01	1.125633e+00	1.020786e+00	1.182692e+00	8.191738e-01	1.016610e+00	9.644690e-01	1.117860e+00	1.153757e+00	1.082282e+00	6.245380e-01	1.057259e+00	1.003182e+00	1.114270e+00	6.265710e-01	6.790847e-01	6.605500e-01	7.406392e-01	8.440983e-01	1.149196e+00	1.288160e+00	1.244027e+00	1.025706e+00	1.281786e+00	1.072669e+00	9.318514e-01	1.329669e+00	8.587298e-01	8.967487e-01	1.074780e+00	1.095209e+00	1.012161e+00	1.001483e+00	9.903933e-01	1.088031e+00	1.061882e+00	1.028723e+00	1.025124e+00	6.648827e-01	6.740488e-01	6.959222e-01	7.905398e-01	9.563054e-01	9.604088e-01	8.317830e-01	1.059395e+00	7.490879e-01	1.076876e+00	1.121785e+00	1.133219e+00	1.210779e+00	1.240996e+00	1.321335e+00	1.051538e+00	1.172325e+00	1.162354e+00	1.078213e+00	1.103027e+00	6.168549e-01	8.915215e-01	6.421575e-01	1.008354e+00	1.012468e+00	1.025020e+00	1.029341e+00	9.599136e-01	9.454097e-01	1.033709e+00	1.038210e+00	1.062125e+00	1.067316e+00	1.096387e+00	9.844553e-01	9.884313e-01	1.125770e+00	9.021249e-01	9.072425e-01	8.860928e-01	8.875647e-01	1.030328e+00	1.052195e+00	1.057074e+00	8.765819e-01	8.673733e-01	9.259192e-01	9.304566e-01	1.083993e+00	1.090010e+00	9.764905e-01	9.804928e-01	9.074566e-01	8.963204e-01	8.860745e-01	9.349461e-01	9.393539e-01	1.010920e+00	9.926608e-01	9.755984e-01	8.450848e-01	8.701743e-01	8.832036e-01	8.511397e-01	8.442518e-01	8.378314e-01	8.261835e-01	8.210373e-01	8.019642e-01	8.047736e-01	8.164216e-01	8.970168e-01	6.283362e-01	6.306896e-01	1.071664e+00	6.332124e-01	6.359238e-01	6.388595e-01	6.456353e-01	1.040157e+00	8.602953e-01	8.779412e-01	6.843089e-01	6.900318e-01	7.583834e-01	7.689375e-01	7.797061e-01	9.943275e-01	1.036234e+00	1.032399e+00	1.021686e+00	1.018343e+00	1.015255e+00	1.009206e+00	1.006511e+00	1.003906e+00	9.993687e-01	9.972813e-01	9.957173e-01	9.941237e-01	9.944669e-01	9.927765e-01	1.000534e+00	6.229313e-01	6.237233e-01	8.239576e-01	6.294164e-01	6.012523e-01	7.022609e-01	7.088572e-01	7.162374e-01	7.240880e-01	7.324135e-01	9.178381e-01	9.411581e-01	9.963195e-01	1.000317e+00	1.004297e+00	9.120119e-01	9.166811e-01	9.670372e-01	9.949702e-01	8.022738e-01	8.152224e-01	8.291437e-01	6.693895e-01	6.493310e-01	6.529347e-01	6.565992e-01	1.052784e+00	1.048444e+00	1.044230e+00	9.436933e-01	9.479546e-01	9.521594e-01	8.122224e-01	8.082563e-01	1.289968e+00	9.274049e-01	1.115055e+00	1.084910e+00	9.263873e-01	1.288765e+00	1.142228e+00	1.046017e+00	1.050722e+00	1.056247e+00	1.102145e+00	6.340705e-01	1.268488e+00	1.065286e+00	1.200848e+00	1.064958e+00	1.108489e+00	1.226242e+00	1.008567e+00	1.197202e+00	1.158102e+00	1.175654e+00	9.958967e-01	8.668479e-01	1.101258e+00	8.905676e-01	9.401095e-01	8.982835e-01	8.127911e-01	1.090431e+00	6.277164e-01	1.060366e+00	1.055934e+00	1.001859e+00	7.605259e-01	6.930792e-01	1.105482e+00	8.741100e-01	1.020183e+00	1.129232e+00	1.096181e+00	1.126836e+00	1.081102e+00	1.124699e+00	9.684262e-01	1.226221e+00	9.726574e-01	9.763210e-01	1.149874e+00	1.112295e+00	1.175517e+00	1.012003e+00	6.311028e-01	6.767256e-01	1.259842e+00	1.097271e+00	1.001381e+00	1.028491e+00	6.721025e-01	6.820210e-01	6.871766e-01	9.604430e-01	9.647552e-01	1.079589e+00	1.130035e+00	1.164133e+00	1.250077e+00	1.302404e+00	1.078108e+00	1.075611e+00	1.099001e+00	6.180838e-01	1.011956e+00	1.015992e+00	1.024313e+00	1.028503e+00	9.678381e-01	9.535188e-01	1.032717e+00	1.037088e+00	1.041517e+00	1.065162e+00	1.070326e+00	9.879820e-01	9.921338e-01	1.119472e+00	9.032929e-01	9.084749e-01	8.913723e-01	8.939891e-01	1.055412e+00	1.060156e+00	8.847156e-01	8.749073e-01	9.312971e-01	1.086782e+00	1.092769e+00	9.803797e-01	9.847146e-01	9.155040e-01	9.045058e-01	8.945402e-01	9.353340e-01	9.400660e-01	1.036808e+00	1.017898e+00	9.997313e-01	9.830466e-01	8.387692e-01	8.626315e-01	8.805981e-01	8.886458e-01	8.594503e-01	8.524149e-01	8.457062e-01	8.394650e-01	8.337592e-01	8.204445e-01	8.128514e-01	8.285714e-01	6.361500e-01	1.074551e+00	1.069660e+00	6.387486e-01	6.413999e-01	6.445525e-01	6.477041e-01	6.515374e-01	8.922699e-01	9.119450e-01	6.988245e-01	7.053964e-01	7.696886e-01	7.799043e-01	7.915636e-01	8.034885e-01	1.039559e+00	1.035789e+00	1.032036e+00	1.024904e+00	1.021673e+00	1.018420e+00	1.015137e+00	1.009510e+00	1.006679e+00	1.004046e+00	9.996609e-01	9.978569e-01	9.960133e-01	9.945270e-01	9.937833e-01	9.938041e-01	9.936759e-01	6.307696e-01	6.279688e-01	9.344510e-01	7.120560e-01	6.275848e-01	6.063820e-01	7.116520e-01	7.186587e-01	7.254946e-01	7.335237e-01	7.418872e-01	7.510455e-01	9.324157e-01	9.545383e-01	9.999227e-01	1.004134e+00	1.007973e+00	9.134530e-01	9.172117e-01	9.222279e-01	9.796887e-01	1.006568e+00	1.034583e+00	8.153981e-01	8.281821e-01	8.425802e-01	8.578518e-01	6.553199e-01	6.595825e-01	6.635432e-01	6.675070e-01	1.043506e+00	1.051621e+00	1.047546e+00	9.439521e-01	9.485052e-01	9.522941e-01	9.567157e-01	8.238913e-01	8.196462e-01	8.157557e-01	1.145687e+00	1.111195e+00	1.078382e+00	1.152576e+00	1.168529e+00	9.782117e-01	9.359995e-01	1.190673e+00	1.081914e+00	1.233507e+00	1.080351e+00	8.766379e-01	7.832064e-01	1.098654e+00	1.185363e+00	1.263477e+00	1.310009e+00	1.310439e+00	1.300623e+00	1.250432e+00	1.122620e+00	6.854702e-01	1.083741e+00	1.107383e+00	1.053694e+00	9.972905e-01	8.967041e-01	1.103074e+00	1.042592e+00	1.054650e+00	6.349355e-01	6.388228e-01	9.974133e-01	1.000121e+00	6.422854e-01	9.293766e-01	6.788647e-01	1.097638e+00	9.486062e-01	1.143200e+00	1.086977e+00	1.305511e+00	1.168672e+00	1.158048e+00	1.049120e+00	1.061003e+00	1.268561e+00	1.069887e+00	1.212575e+00	1.063136e+00	1.210932e+00	1.154615e+00	1.162305e+00	1.123576e+00	8.249488e-01	8.239820e-01	1.092167e+00	6.221683e-01	1.058830e+00	1.101100e+00	9.706550e-01	1.238848e+00	6.893687e-01	6.967856e-01	7.011366e-01	9.628273e-01	1.127315e+00	1.156584e+00	1.280776e+00	1.102361e+00	1.015845e+00	1.019349e+00	1.023647e+00	1.027673e+00	9.617866e-01	9.762614e-01	1.032039e+00	1.036098e+00	1.040401e+00	1.045189e+00	1.068137e+00	1.073189e+00	9.901216e-01	1.113577e+00	9.040303e-01	9.093299e-01	8.969306e-01	9.005191e-01	1.058710e+00	1.063209e+00	8.926899e-01	8.822864e-01	1.089344e+00	1.095145e+00	9.847369e-01	9.237915e-01	9.120926e-01	9.046774e-01	9.382641e-01	1.042522e+00	1.024300e+00	1.006735e+00	9.913038e-01	8.373286e-01	8.545052e-01	8.738695e-01	8.880456e-01	8.942043e-01	8.673470e-01	8.618009e-01	8.530295e-01	8.483467e-01	8.408827e-01	1.076977e+00	1.072256e+00	1.067646e+00	6.442795e-01	6.480983e-01	6.500574e-01	6.545372e-01	6.570621e-01	9.067150e-01	9.264872e-01	7.093619e-01	7.142024e-01	7.902063e-01	8.036524e-01	8.169559e-01	1.038769e+00	1.034939e+00	1.031330e+00	1.027687e+00	1.024272e+00	1.020885e+00	1.017436e+00	1.012799e+00	1.008753e+00	1.004434e+00	9.952389e-01	9.914408e-01	1.004429e+00	7.394678e-01	6.219583e-01	7.231376e-01	7.281607e-01	7.376603e-01	7.429883e-01	7.535609e-01	7.626427e-01	7.726298e-01	9.469874e-01	9.679206e-01	1.003848e+00	1.007640e+00	1.011509e+00	9.150381e-01	9.209546e-01	9.910095e-01	1.016901e+00	1.042691e+00	8.298265e-01	8.427723e-01	8.568998e-01	8.733240e-01	8.897570e-01	6.622081e-01	6.652576e-01	6.709334e-01	6.756441e-01	1.050671e+00	1.046392e+00	9.467374e-01	9.548665e-01	8.371974e-01	8.309039e-01	8.283101e-01	8.233463e-01	1.148756e+00	1.135617e+00	1.180619e+00	1.276464e+00	1.167787e+00	1.085941e+00	1.093441e+00	1.220271e+00	1.065456e+00	1.125789e+00	1.096994e+00	1.261533e+00	1.082241e+00	1.160952e+00	6.901150e-01	1.152525e+00	1.123981e+00	1.196567e+00	1.140960e+00	1.080764e+00	9.284334e-01	1.088464e+00	8.372275e-01	1.056718e+00	1.049997e+00	9.533226e-01	9.443143e-01	8.807209e-01	1.232975e+00	9.027000e-01	9.711677e-01	9.579552e-01	8.099619e-01	1.078806e+00	1.042720e+00	1.242208e+00	1.098622e+00	1.075781e+00	1.147320e+00	1.083483e+00	1.307317e+00	1.248485e+00	1.102755e+00	9.833855e-01	6.488349e-01	6.519969e-01	1.098495e+00	1.155349e+00	1.113965e+00	1.285524e+00	1.162184e+00	1.064926e+00	1.217522e+00	1.199634e+00	6.356488e-01	1.101642e+00	1.061455e+00	1.056992e+00	6.429420e-01	7.015279e-01	7.145561e-01	9.764369e-01	1.149229e+00	1.173848e+00	1.121938e+00	1.021018e+00	1.028778e+00	9.842487e-01	1.037030e+00	1.044100e+00	1.070877e+00	1.108652e+00	9.074905e-01	1.061734e+00	1.066100e+00	8.959848e-01	1.091325e+00	9.893355e-01	9.954071e-01	9.272040e-01	9.126585e-01	9.366723e-01	1.047589e+00	1.029249e+00	1.012566e+00	1.001139e+00	8.581788e-01	8.873042e-01	9.006466e-01	8.657275e-01	8.526157e-01	1.074274e+00	1.069876e+00	6.586998e-01	6.659764e-01	9.398030e-01	7.288156e-01	8.300029e-01	1.006523e+00	1.035310e+00	1.027938e+00	1.021078e+00	1.015467e+00	1.010877e+00	1.002287e+00	9.975950e-01	9.905588e-01	9.959837e-01	1.017351e+00	9.074347e-01	6.617121e-01	6.236270e-01	7.441012e-01	7.599764e-01	7.757098e-01	7.829227e-01	7.960711e-01	9.609324e-01	9.809836e-01	1.002361e+00	1.008977e+00	1.015266e+00	9.151596e-01	9.215911e-01	1.001698e+00	1.025336e+00	1.049650e+00	1.073512e+00	8.449710e-01	8.582154e-01	8.720092e-01	8.880820e-01	9.073111e-01	9.198367e-01	6.742931e-01	6.830317e-01	1.053227e+00	1.049040e+00	9.452066e-01	9.611555e-01	9.688930e-01	8.419544e-01	8.350813e-01	1.103094e+00	1.150367e+00	1.144981e+00	1.119858e+00	1.027247e+00	1.094285e+00	1.149523e+00	1.121284e+00	1.187532e+00	1.136443e+00	1.131931e+00	1.113763e+00	1.142343e+00	1.222645e+00	1.242822e+00	1.071532e+00	9.882434e-01	6.979285e-01	1.109818e+00	1.041596e+00	1.100828e+00	9.439091e-01	1.120666e+00	1.171070e+00	9.061571e-01	1.059816e+00	9.597049e-01	9.356468e-01	1.082807e+00	1.087777e+00	1.083667e+00	1.068632e+00	1.147412e+00	1.084711e+00	1.089212e+00	1.063365e+00	7.216399e-01	6.269892e-01	9.747751e-01	9.913907e-01	1.131660e+00	1.136917e+00	1.287434e+00	1.077941e+00	1.067285e+00	1.162625e+00	1.092973e+00	1.203634e+00	1.153583e+00	9.283180e-01	1.230085e+00	9.815017e-01	9.657900e-01	1.080237e+00	1.256121e+00	1.073282e+00	1.098243e+00	9.818815e-01	1.264726e+00	1.162174e+00	1.007099e+00	1.216808e+00	1.202822e+00	6.530580e-01	1.118869e+00	1.058871e+00	6.463802e-01	7.083539e-01	6.389474e-01	1.163376e+00	1.183408e+00	1.026105e+00	1.033918e+00	1.047932e+00	1.053988e+00	1.104109e+00	9.092858e-01	1.064281e+00	1.068642e+00	8.977654e-01	1.007344e+00	1.013705e+00	9.942168e-01	9.505547e-01	9.344382e-01	9.184401e-01	1.050737e+00	8.548387e-01	8.770206e-01	9.024154e-01	8.864462e-01	9.672977e-01	1.075840e+00	6.585101e-01	6.644428e-01	8.415952e-01	1.038818e+00	1.031468e+00	1.008981e+00	1.024478e+00	1.018473e+00	1.013518e+00	1.004692e+00	1.000719e+00	9.944512e-01	9.902046e-01	1.004965e+00	9.978462e-01	8.050817e-01	7.364411e-01	7.525029e-01	7.694387e-01	7.865441e-01	8.021115e-01	8.226502e-01	9.726500e-01	9.931663e-01	1.000622e+00	1.019560e+00	9.146740e-01	9.215978e-01	1.011886e+00	1.032559e+00	1.055144e+00	1.076629e+00	1.098451e+00	8.602789e-01	8.754990e-01	8.882969e-01	9.027076e-01	9.208567e-01	6.718911e-01	6.803390e-01	6.892598e-01	1.052711e+00	1.045976e+00	9.437731e-01	9.519244e-01	8.715601e-01	8.589470e-01	8.496156e-01	8.461222e-01	1.132448e+00	1.136270e+00	1.131891e+00	1.107058e+00	1.188437e+00	1.123662e+00	1.153586e+00	1.062233e+00	1.160637e+00	1.109304e+00	1.107554e+00	1.075034e+00	1.143409e+00	1.068421e+00	7.447203e-01	1.123754e+00	1.127357e+00	1.131063e+00	1.144323e+00	1.117406e+00	9.250162e-01	1.029439e+00	1.045534e+00	9.933015e-01	1.118062e+00	1.115190e+00	1.111995e+00	1.157262e+00	1.175975e+00	6.404031e-01	9.662890