# vtk DataFile Version 3.0
vtk output
ASCII
DATASET UNSTRUCTURED_GRID
POINTS 200 double
9.997500e-01	-3.632897e-05	0.0	9.990000e-01	-1.452538e-04	0.0	9.977600e-01	-3.251112e-04	0.0	9.960200e-01	-5.769984e-04	0.0	9.937800e-01	-9.004365e-04	0.0	9.910500e-01	-1.293364e-03	0.0	9.878400e-01	-1.753610e-03	0.0	9.841300e-01	-2.283177e-03	0.0	9.799500e-01	-2.876826e-03	0.0	9.752800e-01	-3.536324e-03	0.0	9.701500e-01	-4.256269e-03	0.0	9.645400e-01	-5.038225e-03	0.0	9.584700e-01	-5.878077e-03	0.0	9.519400e-01	-6.774429e-03	0.0	9.449600e-01	-7.724467e-03	0.0	9.375400e-01	-8.725349e-03	0.0	9.296900e-01	-9.774221e-03	0.0	9.214000e-01	-1.087086e-02	0.0	9.127000e-01	-1.200973e-02	0.0	9.035800e-01	-1.319056e-02	0.0	8.940600e-01	-1.440916e-02	0.0	8.841500e-01	-1.566269e-02	0.0	8.738500e-01	-1.694956e-02	0.0	8.631800e-01	-1.826569e-02	0.0	8.521600e-01	-1.960709e-02	0.0	8.407700e-01	-2.097463e-02	0.0	8.290500e-01	-2.236196e-02	0.0	8.170100e-01	-2.376642e-02	0.0	8.046400e-01	-2.518764e-02	0.0	7.919700e-01	-2.662063e-02	0.0	7.790100e-01	-2.806277e-02	0.0	7.657800e-01	-2.951034e-02	0.0	7.522800e-01	-3.096181e-02	0.0	7.385200e-01	-3.241453e-02	0.0	7.245300e-01	-3.386377e-02	0.0	7.103200e-01	-3.530689e-02	0.0	6.958900e-01	-3.674225e-02	0.0	6.812700e-01	-3.816515e-02	0.0	6.664700e-01	-3.957289e-02	0.0	6.515000e-01	-4.096270e-02	0.0	6.363800e-01	-4.233084e-02	0.0	6.211300e-01	-4.367359e-02	0.0	6.057600e-01	-4.498807e-02	0.0	5.902800e-01	-4.627133e-02	0.0	5.747100e-01	-4.751951e-02	0.0	5.590600e-01	-4.872956e-02	0.0	5.433600e-01	-4.989684e-02	0.0	5.276100e-01	-5.101898e-02	0.0	5.118400e-01	-5.209138e-02	0.0	4.960500e-01	-5.311154e-02	0.0	4.802700e-01	-5.407492e-02	0.0	4.645100e-01	-5.497836e-02	0.0	4.487800e-01	-5.581860e-02	0.0	4.331100e-01	-5.659142e-02	0.0	4.175000e-01	-5.729417e-02	0.0	4.019700e-01	-5.792324e-02	0.0	3.865400e-01	-5.847521e-02	0.0	3.712300e-01	-5.894684e-02	0.0	3.560400e-01	-5.933562e-02	0.0	3.409900e-01	-5.963848e-02	0.0	3.261100e-01	-5.985254e-02	0.0	3.114000e-01	-5.997565e-02	0.0	2.968700e-01	-6.000550e-02	0.0	2.825500e-01	-5.994005e-02	0.0	2.684500e-01	-5.977766e-02	0.0	2.545700e-01	-5.951658e-02	0.0	2.409400e-01	-5.915586e-02	0.0	2.275700e-01	-5.869457e-02	0.0	2.144700e-01	-5.813197e-02	0.0	2.016600e-01	-5.746811e-02	0.0	1.891400e-01	-5.670228e-02	0.0	1.769300e-01	-5.583514e-02	0.0	1.650400e-01	-5.486709e-02	0.0	1.534900e-01	-5.379978e-02	0.0	1.422900e-01	-5.263443e-02	0.0	1.314400e-01	-5.137134e-02	0.0	1.209500e-01	-5.001187e-02	0.0	1.108500e-01	-4.856067e-02	0.0	1.011300e-01	-4.701715e-02	0.0	9.181000e-02	-4.538527e-02	0.0	8.290000e-02	-4.366791e-02	0.0	7.440000e-02	-4.186608e-02	0.0	6.633000e-02	-3.998514e-02	0.0	5.869000e-02	-3.802636e-02	0.0	5.149000e-02	-3.599338e-02	0.0	4.474000e-02	-3.389028e-02	0.0	3.844000e-02	-3.171811e-02	0.0	3.260000e-02	-2.948109e-02	0.0	2.723000e-02	-2.718420e-02	0.0	2.232000e-02	-2.482329e-02	0.0	1.790000e-02	-2.241365e-02	0.0	1.395000e-02	-1.994492e-02	0.0	1.049000e-02	-1.742916e-02	0.0	7.520000e-03	-1.486756e-02	0.0	5.040000e-03	-1.226032e-02	0.0	3.050000e-03	-9.605565e-03	0.0	1.560000e-03	-6.917518e-03	0.0	5.600000e-04	-4.173160e-03	0.0	6.000000e-05	-1.375330e-03	0.0	0.000000e+00	0.000000e+00	0.0	6.000000e-05	1.375330e-03	0.0	5.600000e-04	4.173160e-03	0.0	1.560000e-03	6.917518e-03	0.0	3.050000e-03	9.605565e-03	0.0	5.040000e-03	1.226032e-02	0.0	7.520000e-03	1.486756e-02	0.0	1.049000e-02	1.742916e-02	0.0	1.395000e-02	1.994492e-02	0.0	1.790000e-02	2.241365e-02	0.0	2.232000e-02	2.482329e-02	0.0	2.723000e-02	2.718420e-02	0.0	3.260000e-02	2.948109e-02	0.0	3.844000e-02	3.171811e-02	0.0	4.474000e-02	3.389028e-02	0.0	5.149000e-02	3.599338e-02	0.0	5.869000e-02	3.802636e-02	0.0	6.633000e-02	3.998514e-02	0.0	7.440000e-02	4.186608e-02	0.0	8.290000e-02	4.366791e-02	0.0	9.181000e-02	4.538527e-02	0.0	1.011300e-01	4.701715e-02	0.0	1.108500e-01	4.856067e-02	0.0	1.209500e-01	5.001187e-02	0.0	1.314400e-01	5.137134e-02	0.0	1.422900e-01	5.263443e-02	0.0	1.534900e-01	5.379978e-02	0.0	1.650400e-01	5.486709e-02	0.0	1.769300e-01	5.583514e-02	0.0	1.891400e-01	5.670228e-02	0.0	2.016600e-01	5.746811e-02	0.0	2.144700e-01	5.813197e-02	0.0	2.275700e-01	5.869457e-02	0.0	2.409400e-01	5.915586e-02	0.0	2.545700e-01	5.951658e-02	0.0	2.684500e-01	5.977766e-02	0.0	2.825500e-01	5.994005e-02	0.0	2.968700e-01	6.000550e-02	0.0	3.114000e-01	5.997565e-02	0.0	3.261100e-01	5.985254e-02	0.0	3.409900e-01	5.963848e-02	0.0	3.560400e-01	5.933562e-02	0.0	3.712300e-01	5.894684e-02	0.0	3.865400e-01	5.847521e-02	0.0	4.019700e-01	5.792324e-02	0.0	4.175000e-01	5.729417e-02	0.0	4.331100e-01	5.659142e-02	0.0	4.487800e-01	5.581860e-02	0.0	4.645100e-01	5.497836e-02	0.0	4.802700e-01	5.407492e-02	0.0	4.960500e-01	5.311154e-02	0.0	5.118400e-01	5.209138e-02	0.0	5.276100e-01	5.101898e-02	0.0	5.433600e-01	4.989684e-02	0.0	5.590600e-01	4.872956e-02	0.0	5.747100e-01	4.751951e-02	0.0	5.902800e-01	4.627133e-02	0.0	6.057600e-01	4.498807e-02	0.0	6.211300e-01	4.367359e-02	0.0	6.363800e-01	4.233084e-02	0.0	6.515000e-01	4.096270e-02	0.0	6.664700e-01	3.957289e-02	0.0	6.812700e-01	3.816515e-02	0.0	6.958900e-01	3.674225e-02	0.0	7.103200e-01	3.530689e-02	0.0	7.245300e-01	3.386377e-02	0.0	7.385200e-01	3.241453e-02	0.0	7.522800e-01	3.096181e-02	0.0	7.657800e-01	2.951034e-02	0.0	7.790100e-01	2.806277e-02	0.0	7.919700e-01	2.662063e-02	0.0	8.046400e-01	2.518764e-02	0.0	8.170100e-01	2.376642e-02	0.0	8.290500e-01	2.236196e-02	0.0	8.407700e-01	2.097463e-02	0.0	8.521600e-01	1.960709e-02	0.0	8.631800e-01	1.826569e-02	0.0	8.738500e-01	1.694956e-02	0.0	8.841500e-01	1.566269e-02	0.0	8.940600e-01	1.440916e-02	0.0	9.035800e-01	1.319056e-02	0.0	9.127000e-01	1.200973e-02	0.0	9.214000e-01	1.087086e-02	0.0	9.296900e-01	9.774221e-03	0.0	9.375400e-01	8.725349e-03	0.0	9.449600e-01	7.724467e-03	0.0	9.519400e-01	6.774429e-03	0.0	9.584700e-01	5.878077e-03	0.0	9.645400e-01	5.038225e-03	0.0	9.701500e-01	4.256269e-03	0.0	9.752800e-01	3.536324e-03	0.0	9.799500e-01	2.876826e-03	0.0	9.841300e-01	2.283177e-03	0.0	9.878400e-01	1.753610e-03	0.0	9.910500e-01	1.293364e-03	0.0	9.937800e-01	9.004365e-04	0.0	9.960200e-01	5.769984e-04	0.0	9.977600e-01	3.251112e-04	0.0	9.990000e-01	1.452538e-04	0.0	9.997500e-01	3.632897e-05	0.0	1.000000e+00	0.000000e+00	0.0	
CELLS 200	600
2	199	0	2	0	1	2	1	2	2	2	3	2	3	4	2	4	5	2	5	6	2	6	7	2	7	8	2	8	9	2	9	10	2	10	11	2	11	12	2	12	13	2	13	14	2	14	15	2	15	16	2	16	17	2	17	18	2	18	19	2	19	20	2	20	21	2	21	22	2	22	23	2	23	24	2	24	25	2	25	26	2	26	27	2	27	28	2	28	29	2	29	30	2	30	31	2	31	32	2	32	33	2	33	34	2	34	35	2	35	36	2	36	37	2	37	38	2	38	39	2	39	40	2	40	41	2	41	42	2	42	43	2	43	44	2	44	45	2	45	46	2	46	47	2	47	48	2	48	49	2	49	50	2	50	51	2	51	52	2	52	53	2	53	54	2	54	55	2	55	56	2	56	57	2	57	58	2	58	59	2	59	60	2	60	61	2	61	62	2	62	63	2	63	64	2	64	65	2	65	66	2	66	67	2	67	68	2	68	69	2	69	70	2	70	71	2	71	72	2	72	73	2	73	74	2	74	75	2	75	76	2	76	77	2	77	78	2	78	79	2	79	80	2	80	81	2	81	82	2	82	83	2	83	84	2	84	85	2	85	86	2	86	87	2	87	88	2	88	89	2	89	90	2	90	91	2	91	92	2	92	93	2	93	94	2	94	95	2	95	96	2	96	97	2	97	98	2	98	99	2	99	100	2	100	101	2	101	102	2	102	103	2	103	104	2	104	105	2	105	106	2	106	107	2	107	108	2	108	109	2	109	110	2	110	111	2	111	112	2	112	113	2	113	114	2	114	115	2	115	116	2	116	117	2	117	118	2	118	119	2	119	120	2	120	121	2	121	122	2	122	123	2	123	124	2	124	125	2	125	126	2	126	127	2	127	128	2	128	129	2	129	130	2	130	131	2	131	132	2	132	133	2	133	134	2	134	135	2	135	136	2	136	137	2	137	138	2	138	139	2	139	140	2	140	141	2	141	142	2	142	143	2	143	144	2	144	145	2	145	146	2	146	147	2	147	148	2	148	149	2	149	150	2	150	151	2	151	152	2	152	153	2	153	154	2	154	155	2	155	156	2	156	157	2	157	158	2	158	159	2	159	160	2	160	161	2	161	162	2	162	163	2	163	164	2	164	165	2	165	166	2	166	167	2	167	168	2	168	169	2	169	170	2	170	171	2	171	172	2	172	173	2	173	174	2	174	175	2	175	176	2	176	177	2	177	178	2	178	179	2	179	180	2	180	181	2	181	182	2	182	183	2	183	184	2	184	185	2	185	186	2	186	187	2	187	188	2	188	189	2	189	190	2	190	191	2	191	192	2	192	193	2	193	194	2	194	195	2	195	196	2	196	197	2	197	198	2	198	199	
CELL_TYPES 200
3	3	3	3	3	3	3	3	3	3	3	3	3	3	3	3	3	3	3	3	3	3	3	3	3	3	3	3	3	3	3	3	3	3	3	3	3	3	3	3	3	3	3	3	3	3	3	3	3	3	3	3	3	3	3	3	3	3	3	3	3	3	3	3	3	3	3	3	3	3	3	3	3	3	3	3	3	3	3	3	3	3	3	3	3	3	3	3	3	3	3	3	3	3	3	3	3	3	3	3	3	3	3	3	3	3	3	3	3	3	3	3	3	3	3	3	3	3	3	3	3	3	3	3	3	3	3	3	3	3	3	3	3	3	3	3	3	3	3	3	3	3	3	3	3	3	3	3	3	3	3	3	3	3	3	3	3	3	3	3	3	3	3	3	3	3	3	3	3	3	3	3	3	3	3	3	3	3	3	3	3	3	3	3	3	3	3	3	3	3	3	3	3	3	3	3	3	3	3	3	
POINT_DATA 200

SCALARS Density double 1
LOOKUP_TABLE default
1.186904e+00	1.162738e+00	1.147865e+00	1.135663e+00	1.125261e+00	1.116258e+00	1.108016e+00	1.100490e+00	1.093470e+00	1.086874e+00	1.080619e+00	1.074648e+00	1.068921e+00	1.063400e+00	1.058065e+00	1.052895e+00	1.047869e+00	1.042969e+00	1.038186e+00	1.033504e+00	1.028920e+00	1.024426e+00	1.020000e+00	1.015651e+00	1.011354e+00	1.007107e+00	1.002896e+00	9.987226e-01	9.945774e-01	9.904597e-01	9.863673e-01	9.822864e-01	9.781847e-01	9.740621e-01	9.699207e-01	9.657535e-01	9.615689e-01	9.573358e-01	9.530605e-01	9.487239e-01	9.443231e-01	9.398454e-01	9.352851e-01	9.306337e-01	9.258913e-01	9.210530e-01	9.161243e-01	9.111254e-01	9.060926e-01	9.010325e-01	8.958122e-01	8.901399e-01	8.839743e-01	8.782915e-01	8.748997e-01	8.746160e-01	8.746709e-01	8.678758e-01	8.473378e-01	8.167258e-01	7.923371e-01	7.824219e-01	7.823481e-01	7.856227e-01	7.891994e-01	7.925514e-01	7.961027e-01	8.000896e-01	8.044891e-01	8.091789e-01	8.141862e-01	8.196999e-01	8.259373e-01	8.328973e-01	8.404233e-01	8.483438e-01	8.567242e-01	8.657495e-01	8.754541e-01	8.858543e-01	8.970419e-01	9.090507e-01	9.220050e-01	9.359941e-01	9.511789e-01	9.677994e-01	9.860438e-01	1.006233e+00	1.028804e+00	1.054047e+00	1.082504e+00	1.114711e+00	1.150757e+00	1.190647e+00	1.233329e+00	1.276835e+00	1.314445e+00	1.345299e+00	1.351020e+00	1.340960e+00	1.334249e+00	1.303448e+00	1.239152e+00	1.179910e+00	1.121337e+00	1.067590e+00	1.020852e+00	9.810489e-01	9.470267e-01	9.180392e-01	8.930929e-01	8.712047e-01	8.519514e-01	8.347862e-01	8.193860e-01	8.055589e-01	7.929300e-01	7.811348e-01	7.700261e-01	7.595312e-01	7.497543e-01	7.408038e-01	7.325597e-01	7.246339e-01	7.167710e-01	7.090732e-01	7.019382e-01	6.953744e-01	6.891300e-01	6.829507e-01	6.769489e-01	6.713337e-01	6.662856e-01	6.617529e-01	6.576492e-01	6.538253e-01	6.501844e-01	6.466879e-01	6.432415e-01	6.398614e-01	6.365877e-01	6.335653e-01	6.308655e-01	6.283559e-01	6.258526e-01	6.233294e-01	6.208534e-01	6.185997e-01	6.165518e-01	6.149223e-01	6.134112e-01	6.120775e-01	6.113874e-01	6.121815e-01	6.132419e-01	6.106066e-01	6.054512e-01	6.866849e-01	8.884533e-01	9.966294e-01	9.948732e-01	9.849845e-01	9.850831e-01	9.866193e-01	9.871139e-01	9.879975e-01	9.895126e-01	9.914300e-01	9.935747e-01	9.959808e-01	9.985999e-01	1.001400e+00	1.004379e+00	1.007526e+00	1.010815e+00	1.014259e+00	1.017830e+00	1.021549e+00	1.025392e+00	1.029379e+00	1.033496e+00	1.037756e+00	1.042163e+00	1.046722e+00	1.051444e+00	1.056343e+00	1.061436e+00	1.066739e+00	1.072284e+00	1.078100e+00	1.084243e+00	1.090783e+00	1.097792e+00	1.105465e+00	1.113798e+00	1.123486e+00	1.134605e+00	1.148600e+00	1.164518e+00	1.160053e+00	
VECTORS Momentum double
7.475519e-01	1.005056e-01	0.0	7.721272e-01	1.098443e-01	0.0	7.948759e-01	1.139998e-01	0.0	8.125055e-01	1.165807e-01	0.0	8.260122e-01	1.186867e-01	0.0	8.373031e-01	1.200598e-01	0.0	8.466971e-01	1.209680e-01	0.0	8.550374e-01	1.216210e-01	0.0	8.624246e-01	1.220556e-01	0.0	8.691210e-01	1.222942e-01	0.0	8.752339e-01	1.223665e-01	0.0	8.808659e-01	1.222958e-01	0.0	8.860978e-01	1.220920e-01	0.0	8.909707e-01	1.217679e-01	0.0	8.955405e-01	1.213332e-01	0.0	8.998355e-01	1.207968e-01	0.0	9.038898e-01	1.201656e-01	0.0	9.077289e-01	1.194508e-01	0.0	9.113725e-01	1.186531e-01	0.0	9.148271e-01	1.177800e-01	0.0	9.181267e-01	1.168353e-01	0.0	9.212740e-01	1.158254e-01	0.0	9.242683e-01	1.147517e-01	0.0	9.271510e-01	1.136200e-01	0.0	9.299067e-01	1.124331e-01	0.0	9.325585e-01	1.111968e-01	0.0	9.351029e-01	1.099052e-01	0.0	9.375587e-01	1.085647e-01	0.0	9.399200e-01	1.071747e-01	0.0	9.421909e-01	1.057317e-01	0.0	9.443921e-01	1.042374e-01	0.0	9.465220e-01	1.026942e-01	0.0	9.485757e-01	1.010962e-01	0.0	9.505767e-01	9.944572e-02	0.0	9.525255e-01	9.773310e-02	0.0	9.544047e-01	9.596393e-02	0.0	9.562507e-01	9.412481e-02	0.0	9.580202e-01	9.221529e-02	0.0	9.597482e-01	9.023049e-02	0.0	9.614282e-01	8.815936e-02	0.0	9.630551e-01	8.600657e-02	0.0	9.646398e-01	8.375053e-02	0.0	9.661685e-01	8.140057e-02	0.0	9.676534e-01	7.893120e-02	0.0	9.690785e-01	7.634885e-02	0.0	9.704537e-01	7.363177e-02	0.0	9.717603e-01	7.078894e-02	0.0	9.729948e-01	6.779818e-02	0.0	9.741297e-01	6.464400e-02	0.0	9.751989e-01	6.128788e-02	0.0	9.762313e-01	5.774543e-02	0.0	9.772692e-01	5.410291e-02	0.0	9.782166e-01	5.045796e-02	0.0	9.788702e-01	4.666808e-02	0.0	9.790570e-01	4.239905e-02	0.0	9.788779e-01	3.725254e-02	0.0	9.788193e-01	3.130614e-02	0.0	9.796165e-01	2.555511e-02	0.0	9.809633e-01	2.143594e-02	0.0	9.804379e-01	1.848564e-02	0.0	9.770936e-01	1.316960e-02	0.0	9.746364e-01	6.273953e-03	0.0	9.741352e-01	-7.583173e-04	0.0	9.744023e-01	-7.658912e-03	0.0	9.749789e-01	-1.463812e-02	0.0	9.754918e-01	-2.187569e-02	0.0	9.759491e-01	-2.953092e-02	0.0	9.763264e-01	-3.759334e-02	0.0	9.766427e-01	-4.606860e-02	0.0	9.768290e-01	-5.496148e-02	0.0	9.768883e-01	-6.430933e-02	0.0	9.767809e-01	-7.417538e-02	0.0	9.764884e-01	-8.460891e-02	0.0	9.759337e-01	-9.562824e-02	0.0	9.750737e-01	-1.072554e-01	0.0	9.737726e-01	-1.195398e-01	0.0	9.720413e-01	-1.325791e-01	0.0	9.697996e-01	-1.464308e-01	0.0	9.668105e-01	-1.611522e-01	0.0	9.629320e-01	-1.768565e-01	0.0	9.580929e-01	-1.936486e-01	0.0	9.520195e-01	-2.116274e-01	0.0	9.444791e-01	-2.309377e-01	0.0	9.350986e-01	-2.517065e-01	0.0	9.234236e-01	-2.740523e-01	0.0	9.088083e-01	-2.981033e-01	0.0	8.904395e-01	-3.239622e-01	0.0	8.673954e-01	-3.516462e-01	0.0	8.383085e-01	-3.809024e-01	0.0	8.012999e-01	-4.112417e-01	0.0	7.541902e-01	-4.416220e-01	0.0	6.942878e-01	-4.696605e-01	0.0	6.181762e-01	-4.914664e-01	0.0	5.235826e-01	-5.003077e-01	0.0	4.094580e-01	-4.854497e-01	0.0	2.809339e-01	-4.334733e-01	0.0	1.536783e-01	-3.330966e-01	0.0	4.871951e-02	-1.796766e-01	0.0	1.035427e-03	3.648348e-03	0.0	6.442393e-03	1.414756e-01	0.0	3.694111e-02	2.777931e-01	0.0	1.200940e-01	4.499603e-01	0.0	2.593462e-01	5.717631e-01	0.0	4.039702e-01	6.280866e-01	0.0	5.343792e-01	6.360787e-01	0.0	6.407080e-01	6.134550e-01	0.0	7.227708e-01	5.750159e-01	0.0	7.848723e-01	5.307542e-01	0.0	8.309183e-01	4.861079e-01	0.0	8.651415e-01	4.434305e-01	0.0	8.904383e-01	4.040350e-01	0.0	9.090273e-01	3.679878e-01	0.0	9.228035e-01	3.352353e-01	0.0	9.329622e-01	3.055585e-01	0.0	9.403209e-01	2.786307e-01	0.0	9.456027e-01	2.541300e-01	0.0	9.492642e-01	2.317777e-01	0.0	9.515969e-01	2.112597e-01	0.0	9.529459e-01	1.923727e-01	0.0	9.534746e-01	1.749021e-01	0.0	9.533758e-01	1.586797e-01	0.0	9.528570e-01	1.436364e-01	0.0	9.519669e-01	1.296650e-01	0.0	9.505690e-01	1.165814e-01	0.0	9.488406e-01	1.042947e-01	0.0	9.468122e-01	9.265215e-02	0.0	9.447520e-01	8.174024e-02	0.0	9.425494e-01	7.146757e-02	0.0	9.402548e-01	6.185331e-02	0.0	9.377090e-01	5.271086e-02	0.0	9.351276e-01	4.403610e-02	0.0	9.325404e-01	3.577615e-02	0.0	9.301585e-01	2.800399e-02	0.0	9.278783e-01	2.065299e-02	0.0	9.257399e-01	1.373321e-02	0.0	9.236285e-01	7.164327e-03	0.0	9.215260e-01	9.273717e-04	0.0	9.194610e-01	-4.995453e-03	0.0	9.173086e-01	-1.063327e-02	0.0	9.151876e-01	-1.597706e-02	0.0	9.130906e-01	-2.109059e-02	0.0	9.111098e-01	-2.592414e-02	0.0	9.092545e-01	-3.050179e-02	0.0	9.074884e-01	-3.479545e-02	0.0	9.056672e-01	-3.886914e-02	0.0	9.038265e-01	-4.275304e-02	0.0	9.019679e-01	-4.648673e-02	0.0	9.003440e-01	-5.001631e-02	0.0	8.986884e-01	-5.342338e-02	0.0	8.975202e-01	-5.657097e-02	0.0	8.961759e-01	-5.962221e-02	0.0	8.951876e-01	-6.250030e-02	0.0	8.947441e-01	-6.554256e-02	0.0	8.946805e-01	-6.808797e-02	0.0	8.946436e-01	-7.074547e-02	0.0	8.969209e-01	-7.006120e-02	0.0	8.773260e-01	-7.208151e-02	0.0	9.042137e-01	-9.327330e-02	0.0	8.874392e-01	-7.119125e-02	0.0	8.798887e-01	-7.885676e-02	0.0	8.839250e-01	-8.204297e-02	0.0	8.864258e-01	-8.537647e-02	0.0	8.856835e-01	-8.722904e-02	0.0	8.846601e-01	-8.878116e-02	0.0	8.837846e-01	-9.058908e-02	0.0	8.828168e-01	-9.233912e-02	0.0	8.814811e-01	-9.394483e-02	0.0	8.799984e-01	-9.547083e-02	0.0	8.782856e-01	-9.693369e-02	0.0	8.764175e-01	-9.834691e-02	0.0	8.743894e-01	-9.970035e-02	0.0	8.721641e-01	-1.009865e-01	0.0	8.697633e-01	-1.022293e-01	0.0	8.672296e-01	-1.034079e-01	0.0	8.644824e-01	-1.045248e-01	0.0	8.615792e-01	-1.055826e-01	0.0	8.584674e-01	-1.065774e-01	0.0	8.551869e-01	-1.075089e-01	0.0	8.516951e-01	-1.083730e-01	0.0	8.480132e-01	-1.091685e-01	0.0	8.441037e-01	-1.098832e-01	0.0	8.399585e-01	-1.105223e-01	0.0	8.355696e-01	-1.110728e-01	0.0	8.309089e-01	-1.115336e-01	0.0	8.259512e-01	-1.118932e-01	0.0	8.206588e-01	-1.121456e-01	0.0	8.150071e-01	-1.122808e-01	0.0	8.089283e-01	-1.122908e-01	0.0	8.023882e-01	-1.121597e-01	0.0	7.952845e-01	-1.118799e-01	0.0	7.875215e-01	-1.114257e-01	0.0	7.789600e-01	-1.107569e-01	0.0	7.693130e-01	-1.098710e-01	0.0	7.584784e-01	-1.086848e-01	0.0	7.454552e-01	-1.069961e-01	0.0	7.300761e-01	-1.045571e-01	0.0	7.102471e-01	-1.014654e-01	0.0	6.839132e-01	-9.599449e-02	0.0	6.468067e-01	-9.491402e-02	0.0	6.414407e-01	8.559113e-03	0.0	
SCALARS Energy double 1
LOOKUP_TABLE default
3.415596e+00	3.353701e+00	3.317279e+00	3.287369e+00	3.261692e+00	3.239462e+00	3.218968e+00	3.200252e+00	3.182747e+00	3.166280e+00	3.150640e+00	3.135688e+00	3.121328e+00	3.107468e+00	3.094058e+00	3.081048e+00	3.068386e+00	3.056030e+00	3.043958e+00	3.032124e+00	3.020529e+00	3.009152e+00	2.997934e+00	2.986902e+00	2.975991e+00	2.965198e+00	2.954486e+00	2.943860e+00	2.933295e+00	2.922789e+00	2.912342e+00	2.901916e+00	2.891423e+00	2.880868e+00	2.870258e+00	2.859569e+00	2.848832e+00	2.837953e+00	2.826960e+00	2.815797e+00	2.804458e+00	2.792911e+00	2.781137e+00	2.769117e+00	2.756848e+00	2.744321e+00	2.731544e+00	2.718570e+00	2.705488e+00	2.692326e+00	2.678741e+00	2.663977e+00	2.647900e+00	2.633025e+00	2.624063e+00	2.623190e+00	2.623249e+00	2.605517e+00	2.551843e+00	2.471398e+00	2.406588e+00	2.379908e+00	2.379531e+00	2.388149e+00	2.397684e+00	2.406637e+00	2.416117e+00	2.426736e+00	2.438446e+00	2.450910e+00	2.464208e+00	2.478827e+00	2.495342e+00	2.513735e+00	2.533598e+00	2.554449e+00	2.576483e+00	2.600181e+00	2.625583e+00	2.652721e+00	2.681853e+00	2.713030e+00	2.746570e+00	2.782670e+00	2.821712e+00	2.864268e+00	2.910762e+00	2.961990e+00	3.019001e+00	3.082400e+00	3.153507e+00	3.233577e+00	3.322609e+00	3.420597e+00	3.524755e+00	3.630582e+00	3.721414e+00	3.797479e+00	3.809934e+00	3.783701e+00	3.771046e+00	3.699548e+00	3.539902e+00	3.394917e+00	3.250142e+00	3.115938e+00	2.998220e+00	2.897322e+00	2.810450e+00	2.735977e+00	2.671499e+00	2.614537e+00	2.564175e+00	2.519064e+00	2.478396e+00	2.441733e+00	2.408120e+00	2.376603e+00	2.346845e+00	2.318655e+00	2.292321e+00	2.268163e+00	2.245854e+00	2.224313e+00	2.202927e+00	2.181954e+00	2.162506e+00	2.144546e+00	2.127438e+00	2.110459e+00	2.093972e+00	2.078516e+00	2.064626e+00	2.052124e+00	2.040799e+00	2.030221e+00	2.020134e+00	2.010448e+00	2.000871e+00	1.991490e+00	1.982403e+00	1.974009e+00	1.966491e+00	1.959496e+00	1.952502e+00	1.945455e+00	1.938525e+00	1.932256e+00	1.926496e+00	1.921991e+00	1.917714e+00	1.914031e+00	1.912203e+00	1.914251e+00	1.916987e+00	1.911297e+00	1.890236e+00	2.108383e+00	2.632922e+00	2.922402e+00	2.918743e+00	2.892716e+00	2.892838e+00	2.896768e+00	2.897929e+00	2.900117e+00	2.903919e+00	2.908772e+00	2.914183e+00	2.920267e+00	2.926891e+00	2.933960e+00	2.941475e+00	2.949421e+00	2.957703e+00	2.966376e+00	2.975353e+00	2.984700e+00	2.994344e+00	3.004346e+00	3.014660e+00	3.025320e+00	3.036338e+00	3.047724e+00	3.059505e+00	3.071713e+00	3.084390e+00	3.097568e+00	3.111335e+00	3.125753e+00	3.140962e+00	3.157128e+00	3.174407e+00	3.193327e+00	3.213700e+00	3.237443e+00	3.264444e+00	3.298421e+00	3.336416e+00	3.322074e+00	
SCALARS Pressure double 1
LOOKUP_TABLE default
1.270369e+00	1.236858e+00	1.214560e+00	1.196293e+00	1.180904e+00	1.167590e+00	1.155544e+00	1.144547e+00	1.134334e+00	1.124761e+00	1.115708e+00	1.107086e+00	1.098833e+00	1.090898e+00	1.083244e+00	1.075842e+00	1.068660e+00	1.061671e+00	1.054861e+00	1.048210e+00	1.041705e+00	1.035340e+00	1.029087e+00	1.022946e+00	1.016893e+00	1.010918e+00	1.005007e+00	9.991554e-01	9.933548e-01	9.876034e-01	9.818931e-01	9.762074e-01	9.705070e-01	9.647853e-01	9.590452e-01	9.532825e-01	9.474978e-01	9.416638e-01	9.357788e-01	9.298200e-01	9.237847e-01	9.176540e-01	9.114234e-01	9.050788e-01	8.986242e-01	8.920501e-01	8.853684e-01	8.786060e-01	8.718178e-01	8.650027e-01	8.579778e-01	8.503476e-01	8.420826e-01	8.345207e-01	8.300915e-01	8.298448e-01	8.300019e-01	8.209075e-01	7.934962e-01	7.530825e-01	7.216051e-01	7.091389e-01	7.092247e-01	7.135357e-01	7.181211e-01	7.224021e-01	7.269428e-01	7.320645e-01	7.377237e-01	7.437748e-01	7.502465e-01	7.573957e-01	7.655068e-01	7.745914e-01	7.844421e-01	7.948616e-01	8.059138e-01	8.178481e-01	8.307604e-01	8.446834e-01	8.597207e-01	8.759548e-01	8.935591e-01	9.126894e-01	9.335973e-01	9.566602e-01	9.821964e-01	1.010675e+00	1.042778e+00	1.079039e+00	1.120280e+00	1.167368e+00	1.220649e+00	1.280145e+00	1.344499e+00	1.410438e+00	1.468090e+00	1.513839e+00	1.523971e+00	1.510489e+00	1.496646e+00	1.446540e+00	1.352341e+00	1.263437e+00	1.176961e+00	1.098971e+00	1.032165e+00	9.759158e-01	9.284670e-01	8.884953e-01	8.544841e-01	8.250297e-01	7.993781e-01	7.767200e-01	7.565878e-01	7.386606e-01	7.224137e-01	7.073625e-01	6.932625e-01	6.800186e-01	6.677523e-01	6.565734e-01	6.463339e-01	6.365841e-01	6.269263e-01	6.175081e-01	6.087868e-01	6.008325e-01	5.932867e-01	5.858702e-01	5.786616e-01	5.719491e-01	5.659082e-01	5.605152e-01	5.556385e-01	5.511194e-01	5.468320e-01	5.427134e-01	5.386838e-01	5.347196e-01	5.308827e-01	5.273439e-01	5.242031e-01	5.212894e-01	5.184008e-01	5.154860e-01	5.126404e-01	5.100116e-01	5.076863e-01	5.057575e-01	5.040692e-01	5.024865e-01	5.015904e-01	5.026773e-01	5.041277e-01	4.994133e-01	5.001210e-01	6.026889e-01	8.747428e-01	1.012349e+00	1.009074e+00	9.960605e-01	9.963276e-01	9.984620e-01	9.992544e-01	1.000554e+00	1.002735e+00	1.005452e+00	1.008507e+00	1.011923e+00	1.015640e+00	1.019626e+00	1.023871e+00	1.028352e+00	1.033053e+00	1.037976e+00	1.043098e+00	1.048434e+00	1.053963e+00	1.059703e+00	1.065644e+00	1.071802e+00	1.078182e+00	1.084794e+00	1.091657e+00	1.098792e+00	1.106223e+00	1.113978e+00	1.122103e+00	1.130647e+00	1.139694e+00	1.149346e+00	1.159739e+00	1.171113e+00	1.183639e+00	1.198146e+00	1.215042e+00	1.236319e+00	1.261168e+00	1.257881e+00	
SCALARS Temperature double 1
LOOKUP_TABLE default
1.070322e+00	1.063745e+00	1.058103e+00	1.053388e+00	1.049449e+00	1.045986e+00	1.042895e+00	1.040034e+00	1.037372e+00	1.034859e+00	1.032471e+00	1.030185e+00	1.027984e+00	1.025859e+00	1.023797e+00	1.021794e+00	1.019841e+00	1.017932e+00	1.016062e+00	1.014229e+00	1.012427e+00	1.010654e+00	1.008909e+00	1.007183e+00	1.005477e+00	1.003784e+00	1.002105e+00	1.000433e+00	9.987707e-01	9.971162e-01	9.954640e-01	9.938113e-01	9.921511e-01	9.904762e-01	9.887872e-01	9.870867e-01	9.853665e-01	9.836296e-01	9.818671e-01	9.800743e-01	9.782507e-01	9.763882e-01	9.744872e-01	9.725403e-01	9.705505e-01	9.685112e-01	9.664283e-01	9.643085e-01	9.621730e-01	9.600127e-01	9.577653e-01	9.552966e-01	9.526098e-01	9.501638e-01	9.487848e-01	9.488105e-01	9.489305e-01	9.458812e-01	9.364580e-01	9.220750e-01	9.107299e-01	9.063383e-01	9.065335e-01	9.082422e-01	9.099362e-01	9.114893e-01	9.131270e-01	9.149781e-01	9.170089e-01	9.191723e-01	9.214680e-01	9.239915e-01	9.268341e-01	9.299964e-01	9.333893e-01	9.369569e-01	9.406923e-01	9.446706e-01	9.489479e-01	9.535241e-01	9.583952e-01	9.635929e-01	9.691478e-01	9.751016e-01	9.815160e-01	9.884902e-01	9.960981e-01	1.004415e+00	1.013583e+00	1.023710e+00	1.034897e+00	1.047238e+00	1.060735e+00	1.075168e+00	1.090138e+00	1.104636e+00	1.116890e+00	1.125281e+00	1.128015e+00	1.126423e+00	1.121715e+00	1.109780e+00	1.091344e+00	1.070791e+00	1.049605e+00	1.029394e+00	1.011081e+00	9.947677e-01	9.804022e-01	9.678185e-01	9.567695e-01	9.469986e-01	9.382908e-01	9.304419e-01	9.233594e-01	9.169541e-01	9.110688e-01	9.055576e-01	9.003104e-01	8.953136e-01	8.906282e-01	8.862986e-01	8.822952e-01	8.784906e-01	8.746536e-01	8.708666e-01	8.672940e-01	8.640418e-01	8.609214e-01	8.578514e-01	8.548083e-01	8.519595e-01	8.493477e-01	8.470159e-01	8.448859e-01	8.429153e-01	8.410414e-01	8.392201e-01	8.374518e-01	8.356803e-01	8.339506e-01	8.323434e-01	8.309269e-01	8.296085e-01	8.283114e-01	8.269882e-01	8.257028e-01	8.244614e-01	8.234284e-01	8.224739e-01	8.217476e-01	8.209525e-01	8.204134e-01	8.211246e-01	8.220700e-01	8.178970e-01	8.260303e-01	8.776790e-01	9.845682e-01	1.015772e+00	1.014274e+00	1.011245e+00	1.011415e+00	1.012003e+00	1.012299e+00	1.012709e+00	1.013362e+00	1.014143e+00	1.015029e+00	1.016007e+00	1.017064e+00	1.018200e+00	1.019407e+00	1.020670e+00	1.022000e+00	1.023384e+00	1.024826e+00	1.026318e+00	1.027863e+00	1.029458e+00	1.031106e+00	1.032807e+00	1.034561e+00	1.036373e+00	1.038245e+00	1.040185e+00	1.042194e+00	1.044284e+00	1.046461e+00	1.048741e+00	1.051142e+00	1.053689e+00	1.056429e+00	1.059385e+00	1.062705e+00	1.066454e+00	1.070894e+00	1.076370e+00	1.082996e+00	1.084331e+00	
SCALARS Mach double 1
LOOKUP_TABLE default
5.191521e-01	5.496356e-01	5.747799e-01	5.951739e-01	6.118233e-01	6.261964e-01	6.388304e-01	6.503705e-01	6.609820e-01	6.708941e-01	6.802241e-01	6.890768e-01	6.975300e-01	7.056305e-01	7.134308e-01	7.209594e-01	7.282536e-01	7.353425e-01	7.422433e-01	7.489704e-01	7.555507e-01	7.619886e-01	7.682973e-01	7.745059e-01	7.806164e-01	7.866507e-01	7.926143e-01	7.985236e-01	8.043786e-01	8.101822e-01	8.159553e-01	8.217086e-01	8.274672e-01	8.332554e-01	8.390716e-01	8.449071e-01	8.507896e-01	8.567088e-01	8.626951e-01	8.687637e-01	8.749162e-01	8.811790e-01	8.875497e-01	8.940530e-01	9.006780e-01	9.074451e-01	9.143346e-01	9.213234e-01	9.283416e-01	9.354190e-01	9.427589e-01	9.507960e-01	9.595129e-01	9.674225e-01	9.718712e-01	9.717882e-01	9.714013e-01	9.812143e-01	1.011327e+00	1.056754e+00	1.092212e+00	1.105863e+00	1.105257e+00	1.099950e+00	1.094682e+00	1.089847e+00	1.084744e+00	1.078968e+00	1.072624e+00	1.065854e+00	1.058659e+00	1.050734e+00	1.041788e+00	1.031809e+00	1.021070e+00	1.009741e+00	9.978341e-01	9.851005e-01	9.713453e-01	9.565499e-01	9.407041e-01	9.236776e-01	9.053350e-01	8.854929e-01	8.638851e-01	8.400925e-01	8.137420e-01	7.844050e-01	7.513332e-01	7.137593e-01	6.707447e-01	6.210264e-01	5.631576e-01	4.957534e-01	4.168115e-01	3.253142e-01	2.231841e-01	1.102514e-01	2.233751e-03	8.410089e-02	1.676046e-01	2.866424e-01	4.098966e-01	5.169270e-01	6.111683e-01	6.921209e-01	7.604400e-01	8.183819e-01	8.676555e-01	9.097390e-01	9.460039e-01	9.776225e-01	1.005494e+00	1.030400e+00	1.052721e+00	1.072795e+00	1.091157e+00	1.108286e+00	1.124544e+00	1.139983e+00	1.154427e+00	1.167749e+00	1.180048e+00	1.191720e+00	1.203479e+00	1.215073e+00	1.226002e+00	1.235944e+00	1.245479e+00	1.254856e+00	1.264147e+00	1.272844e+00	1.280815e+00	1.287932e+00	1.294433e+00	1.300447e+00	1.306167e+00	1.311726e+00	1.317124e+00	1.322532e+00	1.327814e+00	1.332723e+00	1.337049e+00	1.341077e+00	1.345040e+00	1.349084e+00	1.353013e+00	1.356809e+00	1.359968e+00	1.362887e+00	1.365109e+00	1.367542e+00	1.369191e+00	1.367015e+00	1.364123e+00	1.376893e+00	1.352013e+00	1.194208e+00	8.535128e-01	7.433083e-01	7.488049e-01	7.598466e-01	7.592297e-01	7.570906e-01	7.560148e-01	7.545206e-01	7.521386e-01	7.492851e-01	7.460382e-01	7.424463e-01	7.385506e-01	7.343479e-01	7.298691e-01	7.251647e-01	7.201894e-01	7.149900e-01	7.095469e-01	7.038855e-01	6.979917e-01	6.918757e-01	6.855202e-01	6.789164e-01	6.720607e-01	6.649328e-01	6.575116e-01	6.497644e-01	6.416702e-01	6.331742e-01	6.242396e-01	6.147819e-01	6.047071e-01	5.938856e-01	5.820809e-01	5.691422e-01	5.543356e-01	5.372471e-01	5.164337e-01	4.898055e-01	4.559080e-01	4.488202e-01	
SCALARS Pressure_Coefficient double 1
LOOKUP_TABLE default